 Gaussian 16, Revision A.03,
 Gaussian 16:  ES64L-G16RevA.03 25-Dec-2016

 --------------------------
 # MP2/aug-cc-pVDZ opt freq
 --------------------------

 ------------
 CF3 H Closed
 ------------
 Symbolic Z-matrix:
 Charge =  0 Multiplicity = 1

 SCF Done:  E(RHF) =  -880.442521243     A.U. after   13 cycles
 E2 =    -0.2161702740D+01 EUMP2 =    -0.88260422398265D+03
 SCF Done:  E(RHF) =  -880.451014586     A.U. after   12 cycles
 E2 =    -0.2161460833D+01 EUMP2 =    -0.88261247541912D+03
 SCF Done:  E(RHF) =  -880.454156238     A.U. after   12 cycles
 E2 =    -0.2160487100D+01 EUMP2 =    -0.88261464333778D+03
 SCF Done:  E(RHF) =  -880.454776900     A.U. after   12 cycles
 E2 =    -0.2160179090D+01 EUMP2 =    -0.88261495599002D+03
 SCF Done:  E(RHF) =  -880.455850165     A.U. after   12 cycles
 E2 =    -0.2160119547D+01 EUMP2 =    -0.88261596971229D+03
 SCF Done:  E(RHF) =  -880.456044761     A.U. after   11 cycles
 E2 =    -0.2160285361D+01 EUMP2 =    -0.88261633012198D+03
 SCF Done:  E(RHF) =  -880.455619207     A.U. after   10 cycles
 E2 =    -0.2160835073D+01 EUMP2 =    -0.88261645427996D+03
 SCF Done:  E(RHF) =  -880.455600394     A.U. after   10 cycles
 E2 =    -0.2160884281D+01 EUMP2 =    -0.88261648467499D+03
 SCF Done:  E(RHF) =  -880.455634937     A.U. after    8 cycles
 E2 =    -0.2160856198D+01 EUMP2 =    -0.88261649113414D+03
 SCF Done:  E(RHF) =  -880.455655364     A.U. after    8 cycles
 E2 =    -0.2160837207D+01 EUMP2 =    -0.88261649257116D+03
 SCF Done:  E(RHF) =  -880.455675165     A.U. after    7 cycles
 E2 =    -0.2160817697D+01 EUMP2 =    -0.88261649286134D+03
 SCF Done:  E(RHF) =  -880.455682718     A.U. after    7 cycles
 E2 =    -0.2160810237D+01 EUMP2 =    -0.88261649295410D+03
 Optimization completed.
    -- Stationary point found.
 Normal termination of Gaussian 16 at Tue Feb  8 14:18:49 2022.

 ----------------------------------------------------------------------
 #N Geom=AllCheck Guess=TCheck SCRF=Check GenChk RMP2(FC)/Aug-CC-pVDZ F
 req
 ----------------------------------------------------------------------

 Structure from the checkpoint file:  "/gscratch/scrubbed/gds001/Gau-25295.chk"
 ------------
 CF3 H Closed
 ------------
 Charge =  0 Multiplicity = 1

                         Standard orientation:
 ---------------------------------------------------------------------
 Center     Atomic      Atomic             Coordinates (Angstroms)
 Number     Number       Type             X           Y           Z
 ---------------------------------------------------------------------
      1          8           0        0.207121    0.688341   -1.559567
      2          6           0        0.064693    0.326764   -0.211438
      3          1           0        0.882113    1.405633   -1.528953
      4          6           0        0.563192    1.466322    0.725788
      5          6           0        0.890855   -0.951526    0.037048
      6          6           0       -1.432354    0.083317    0.043458
      7          7           0        1.677027    2.150106    0.056099
      8          1           0        0.804373    1.054696    1.717772
      9          1           0       -0.259418    2.185072    0.840372
     10          1           0        2.571393    1.716923    0.278822
     11          1           0        1.722239    3.128313    0.331330
     12          9           0       -2.143442    1.184196   -0.294792
     13          9           0       -1.670409   -0.160041    1.359772
     14          9           0       -1.918980   -0.953694   -0.665234
     15          9           0        2.217045   -0.651220   -0.093277
     16          9           0        0.614302   -1.934942   -0.834223
     17          9           0        0.719799   -1.439562    1.291683
 ---------------------------------------------------------------------

 SCF Done:  E(RHF) =  -880.455682717     A.U. after    1 cycles
 E2 =    -0.2160810227D+01 EUMP2 =    -0.88261649294485D+03
 E2 =    -0.2160810227D+01 EUMP2 =    -0.88261649294485D+03

 The electronic state is 1-A.
 Alpha  occ. eigenvalues --  -26.36624 -26.36598 -26.36356 -26.36170 -26.36090
 Alpha  occ. eigenvalues --  -26.36034 -20.60167 -15.60205 -11.53541 -11.53525
 Alpha  occ. eigenvalues --  -11.36625 -11.31333  -1.74221  -1.73622  -1.65038
 Alpha  occ. eigenvalues --   -1.64847  -1.64525  -1.64477  -1.41528  -1.22737
 Alpha  occ. eigenvalues --   -1.10666  -0.99322  -0.96419  -0.89785  -0.85029
 Alpha  occ. eigenvalues --   -0.83782  -0.83030  -0.82703  -0.81468  -0.75655
 Alpha  occ. eigenvalues --   -0.74181  -0.72679  -0.72002  -0.71227  -0.70712
 Alpha  occ. eigenvalues --   -0.70151  -0.67944  -0.67834  -0.66735  -0.66368
 Alpha  occ. eigenvalues --   -0.66230  -0.65483  -0.65203  -0.62488  -0.59536
 Alpha  occ. eigenvalues --   -0.56652  -0.53605  -0.49404  -0.45230
 Alpha virt. eigenvalues --    0.02332   0.04580   0.04708   0.05850   0.07420
 Alpha virt. eigenvalues --    0.08575   0.08681   0.10816   0.11110   0.12325
 Alpha virt. eigenvalues --    0.13019   0.13913   0.14274   0.14873   0.15359

 Mulliken charges:
               1
     1  O   -0.972891
     2  C    0.136473
     3  H    0.215521
     4  C    0.933626
     5  C    2.276364
     6  C    2.143501
     7  N   -0.554577
     8  H   -0.056238
     9  H   -0.123520
    10  H    0.103234
    11  H    0.046702
    12  F   -0.689961
    13  F   -0.688885
    14  F   -0.686352
    15  F   -0.723615
    16  F   -0.675086
    17  F   -0.684297
 Sum of Mulliken charges =  -0.00000

 Dipole moment (field-independent basis, Debye):
    X=              2.5088    Y=              3.7383    Z=              2.0845  Tot=              4.9612
 Quadrupole moment (field-independent basis, Debye-Ang):
   XX=            -66.4680   YY=            -60.9424   ZZ=            -69.7698
   XY=              5.5295   XZ=              1.0715   YZ=              2.7449

  Exact polarizability:  68.525   4.231  69.618   0.250   0.762  65.013
 Approx polarizability:  54.747   1.722  56.083  -0.041  -0.022  56.977

                      1                      2                      3
                      A                      A                      A
 Frequencies --     44.7926                88.0956               125.7839
 Red. masses --     17.9136                 8.9531                 3.5246
 Frc consts  --      0.0212                 0.0409                 0.0329
 IR Inten    --      0.0244                 1.1988                 2.0293

                      4                      5                      6
                      A                      A                      A
 Frequencies --    169.4365               201.0389               229.3857
 Red. masses --     12.8470                 6.1690                 4.6320
 Frc consts  --      0.2173                 0.1469                 0.1436
 IR Inten    --      2.2090                 3.4153                 3.1190

                      7                      8                      9
                      A                      A                      A
 Frequencies --    273.5938               303.9184               307.9741
 Red. masses --      6.8195                 1.3506                 5.7246
 Frc consts  --      0.3008                 0.0735                 0.3199
 IR Inten    --      1.8368                10.5874                 6.0472

                     10                     11                     12
                      A                      A                      A
 Frequencies --    324.2084               342.7587               357.7763
 Red. masses --      9.3436                12.9173                 4.1037
 Frc consts  --      0.5786                 0.8941                 0.3095
 IR Inten    --      0.2662                 0.2941                 2.2246

                     13                     14                     15
                      A                      A                      A
 Frequencies --    383.6456               451.4721               518.5512
 Red. masses --      6.0747                11.4493                16.2399
 Frc consts  --      0.5268                 1.3750                 2.5729
 IR Inten    --      0.3767                 1.8300                 2.9710

                     16                     17                     18
                      A                      A                      A
 Frequencies --    536.8229               550.6486               597.6917
 Red. masses --     10.6766                16.2334                 9.2114
 Frc consts  --      1.8128                 2.9001                 1.9388
 IR Inten    --      2.9701                 1.2297                 1.1792

                     19                     20                     21
                      A                      A                      A
 Frequencies --    656.5239               702.2557               709.3202
 Red. masses --      5.0285                 1.5405                 2.6663
 Frc consts  --      1.2770                 0.4476                 0.7904
 IR Inten    --     20.0601                73.3041                39.3824

                     22                     23                     24
                      A                      A                      A
 Frequencies --    750.2117               849.2821               910.1742
 Red. masses --      8.6982                 1.4043                 2.4731
 Frc consts  --      2.8843                 0.5968                 1.2071
 IR Inten    --      1.7952                71.4937                40.1046

                     25                     26                     27
                      A                      A                      A
 Frequencies --    991.7518              1016.6229              1097.2122
 Red. masses --      2.5130                 4.0563                 2.9843
 Frc consts  --      1.4563                 2.4700                 2.1168
 IR Inten    --    106.1620                80.7951                39.7846

                     28                     29                     30
                      A                      A                      A
 Frequencies --   1128.0550              1158.3272              1189.3685
 Red. masses --      9.6093                 3.7009                 8.8519
 Frc consts  --      7.2045                 2.9257                 7.3777
 IR Inten    --     77.3082                37.9000               246.0552

                     31                     32                     33
                      A                      A                      A
 Frequencies --   1196.8438              1200.1283              1236.6440
 Red. masses --      2.2487                11.1779                 6.9482
 Frc consts  --      1.8978                 9.4856                 6.2606
 IR Inten    --     70.2361               196.3692               266.3813

                     34                     35                     36
                      A                      A                      A
 Frequencies --   1301.5871              1327.7184              1364.4848
 Red. masses --      3.5576                 1.3995                 3.4475
 Frc consts  --      3.5511                 1.4535                 3.7817
 IR Inten    --    224.5091                52.6908                84.6266

                     37                     38                     39
                      A                      A                      A
 Frequencies --   1415.8785              1461.0768              1492.4603
 Red. masses --      1.3809                 1.6984                 1.0889
 Frc consts  --      1.6311                 2.1362                 1.4290
 IR Inten    --      9.8082                52.9224                 8.8992

                     40                     41                     42
                      A                      A                      A
 Frequencies --   1641.3935              3098.8140              3172.9513
 Red. masses --      1.0902                 1.0622                 1.1049
 Frc consts  --      1.7305                 6.0097                 6.5540
 IR Inten    --     31.5187                11.0453                 3.3667

                     43                     44                     45
                      A                      A                      A
 Frequencies --   3489.5299              3538.6207              3641.9532
 Red. masses --      1.0644                 1.0509                 1.0946
 Frc consts  --      7.6361                 7.7529                 8.5540
 IR Inten    --    254.2318                 1.3956                21.7465

 - Thermochemistry -
 -------------------
 Temperature   298.150 Kelvin.  Pressure   1.00000 Atm.
 Atom     1 has atomic number  8 and mass  15.99491

 Molecular mass:   197.02753 amu.
 Principal axes and moments of inertia in atomic units:
                           1         2         3
     Eigenvalues --  1547.628361978.214152509.75861
           X            0.99117   0.13245   0.00606
           Y           -0.13255   0.99094   0.02157
           Z           -0.00315  -0.02218   0.99975
 This molecule is an asymmetric top.
 Rotational symmetry number  1.
 Warning -- assumption of classical behavior for rotation
           may cause significant error
 Rotational temperatures (Kelvin)      0.05597     0.04378     0.03451
 Rotational constants (GHZ):           1.16613     0.91231     0.71909
 Zero-point vibrational energy     284392.9 (Joules/Mol)
                                   67.97154 (Kcal/Mol)
 Warning -- explicit consideration of  18 degrees of freedom as
           vibrations may cause significant error
 Vibrational temperatures:     64.45   126.75   180.97   243.78   289.25
          (Kelvin)            330.03   393.64   437.27   443.11   466.46
                              493.15   514.76   551.98   649.57   746.08
                              772.37   792.26   859.95   944.59  1010.39
                             1020.55  1079.39  1221.93  1309.54  1426.91
                             1462.69  1578.64  1623.02  1666.57  1711.24
                             1721.99  1726.72  1779.25  1872.69  1910.29
                             1963.19  2037.13  2102.16  2147.32  2361.60
                             4458.50  4565.17  5020.66  5091.29  5239.96

 Zero-point correction=                           0.108320 (Hartree/Particle)
 Thermal correction to Energy=                    0.119687
 Thermal correction to Enthalpy=                  0.120631
 Thermal correction to Gibbs Free Energy=         0.070996
 Sum of electronic and zero-point Energies=           -882.508173
 Sum of electronic and thermal Energies=              -882.496806
 Sum of electronic and thermal Enthalpies=            -882.495862
 Sum of electronic and thermal Free Energies=         -882.545497

                     E (Thermal)             CV                S
                      KCal/Mol        Cal/Mol-Kelvin    Cal/Mol-Kelvin
 Total                   75.105             41.960            104.467
 Electronic               0.000              0.000              0.000
 Translational            0.889              2.981             41.740
 Rotational               0.889              2.981             30.420
 Vibrational             73.327             35.998             32.308
 Vibration     1          0.595              1.979              5.035
 Vibration     2          0.601              1.958              3.702
 Vibration     3          0.611              1.927              3.010
 Vibration     4          0.625              1.880              2.442
 Vibration     5          0.638              1.838              2.124
 Vibration     6          0.652              1.796              1.884
 Vibration     7          0.676              1.722              1.573
 Vibration     8          0.695              1.666              1.395
 Vibration     9          0.698              1.659              1.373
 Vibration    10          0.709              1.627              1.289
 Vibration    11          0.722              1.590              1.199
 Vibration    12          0.733              1.559              1.132
 Vibration    13          0.753              1.505              1.025
 Vibration    14          0.810              1.358              0.791
 Vibration    15          0.874              1.209              0.613
 Vibration    16          0.892              1.169              0.572
 Vibration    17          0.906              1.138              0.543
 Vibration    18          0.956              1.037              0.454

 Optimization completed.
    -- Stationary point found.
 Normal termination of Gaussian 16 at Tue Feb  8 15:27:45 2022.
