 Gaussian 16, Revision A.03,
 Gaussian 16:  ES64L-G16RevA.03 25-Dec-2016

 --------------------------
 # MP2/aug-cc-pVDZ opt freq
 --------------------------

 ----------
 CF3 H Open
 ----------
 Symbolic Z-matrix:
 Charge =  0 Multiplicity = 1

 SCF Done:  E(RHF) =  -880.436781319     A.U. after   13 cycles
 E2 =    -0.2159723346D+01 EUMP2 =    -0.88259650466436D+03
 SCF Done:  E(RHF) =  -880.442742933     A.U. after   12 cycles
 E2 =    -0.2159526750D+01 EUMP2 =    -0.88260226968357D+03
 SCF Done:  E(RHF) =  -880.445994027     A.U. after   12 cycles
 E2 =    -0.2158765807D+01 EUMP2 =    -0.88260475983383D+03
 SCF Done:  E(RHF) =  -880.446737864     A.U. after   11 cycles
 E2 =    -0.2158836916D+01 EUMP2 =    -0.88260557477952D+03
 SCF Done:  E(RHF) =  -880.447492878     A.U. after   11 cycles
 E2 =    -0.2158444032D+01 EUMP2 =    -0.88260593690955D+03
 SCF Done:  E(RHF) =  -880.447579125     A.U. after   11 cycles
 E2 =    -0.2158499667D+01 EUMP2 =    -0.88260607879251D+03
 SCF Done:  E(RHF) =  -880.447498187     A.U. after   10 cycles
 E2 =    -0.2158630659D+01 EUMP2 =    -0.88260612884613D+03
 SCF Done:  E(RHF) =  -880.447530898     A.U. after   10 cycles
 E2 =    -0.2158632362D+01 EUMP2 =    -0.88260616325958D+03
 SCF Done:  E(RHF) =  -880.447615263     A.U. after   12 cycles
 E2 =    -0.2158648426D+01 EUMP2 =    -0.88260626368953D+03
 SCF Done:  E(RHF) =  -880.445635342     A.U. after   14 cycles
 E2 =    -0.2159068944D+01 EUMP2 =    -0.88260470428596D+03
 E2 =    -0.2158590495D+01 EUMP2 =    -0.88260638452610D+03
 SCF Done:  E(RHF) =  -880.447717022     A.U. after   11 cycles
 E2 =    -0.2158672292D+01 EUMP2 =    -0.88260638931430D+03
 SCF Done:  E(RHF) =  -880.447631461     A.U. after   11 cycles
 E2 =    -0.2158722373D+01 EUMP2 =    -0.88260635383412D+03
 SCF Done:  E(RHF) =  -880.447869978     A.U. after   11 cycles
 E2 =    -0.2158533240D+01 EUMP2 =    -0.88260640321781D+03
 SCF Done:  E(RHF) =  -880.447968460     A.U. after   10 cycles
 E2 =    -0.2158575330D+01 EUMP2 =    -0.88260654379070D+03
 SCF Done:  E(RHF) =  -880.447871845     A.U. after   10 cycles
 E2 =    -0.2158683512D+01 EUMP2 =    -0.88260655535686D+03
 SCF Done:  E(RHF) =  -880.447891526     A.U. after    9 cycles
 E2 =    -0.2158669126D+01 EUMP2 =    -0.88260656065136D+03
 SCF Done:  E(RHF) =  -880.447877632     A.U. after    9 cycles
 E2 =    -0.2158685124D+01 EUMP2 =    -0.88260656275617D+03
 SCF Done:  E(RHF) =  -880.447874838     A.U. after    8 cycles
 E2 =    -0.2158688589D+01 EUMP2 =    -0.88260656342780D+03
 SCF Done:  E(RHF) =  -880.447876248     A.U. after    8 cycles
 E2 =    -0.2158687345D+01 EUMP2 =    -0.88260656359238D+03
 Optimization completed.
    -- Stationary point found.
 Normal termination of Gaussian 16 at Tue Feb  8 15:18:21 2022.

 ----------------------------------------------------------------------
 #N Geom=AllCheck Guess=TCheck SCRF=Check GenChk RMP2(FC)/Aug-CC-pVDZ F
 req
 ----------------------------------------------------------------------

 Structure from the checkpoint file:  "/gscratch/scrubbed/gds001/Gau-26559.chk"
 ----------
 CF3 H Open
 ----------
 Charge =  0 Multiplicity = 1

                         Standard orientation:
 ---------------------------------------------------------------------
 Center     Atomic      Atomic             Coordinates (Angstroms)
 Number     Number       Type             X           Y           Z
 ---------------------------------------------------------------------
      1          8           0       -0.051674    0.559180    1.724453
      2          6           0       -0.032874    0.357301    0.328784
      3          1           0        0.324299   -0.224451    2.157236
      4          6           0       -0.545540    1.638730   -0.356809
      5          6           0       -0.906568   -0.864204   -0.050971
      6          6           0        1.425195    0.110536   -0.122737
      7          7           0       -1.971706    1.850072   -0.108799
      8          1           0       -0.263948    1.591881   -1.423992
      9          1           0        0.014668    2.460691    0.108899
     10          1           0       -2.542075    1.325914   -0.771897
     11          1           0       -2.197640    2.833925   -0.242458
     12          9           0        2.141518    1.258090   -0.068337
     13          9           0        1.492984   -0.357040   -1.391009
     14          9           0        2.049976   -0.782318    0.685577
     15          9           0       -2.055116   -0.882201    0.647215
     16          9           0       -0.266495   -2.036734    0.203773
     17          9           0       -1.225228   -0.851584   -1.371822
 ---------------------------------------------------------------------

 SCF Done:  E(RHF) =  -880.447876248     A.U. after    1 cycles
 E2 =    -0.2158687331D+01 EUMP2 =    -0.88260656357862D+03
 E2 =    -0.2158687331D+01 EUMP2 =    -0.88260656357862D+03

 The electronic state is 1-A.
 Alpha  occ. eigenvalues --  -26.37311 -26.37150 -26.37049 -26.37042 -26.36804
 Alpha  occ. eigenvalues --  -26.36444 -20.62058 -15.57463 -11.54340 -11.54081
 Alpha  occ. eigenvalues --  -11.37236 -11.29991  -1.74968  -1.74220  -1.65789
 Alpha  occ. eigenvalues --   -1.65538  -1.65229  -1.64967  -1.42498  -1.20987
 Alpha  occ. eigenvalues --   -1.10715  -0.99790  -0.96516  -0.89385  -0.85392
 Alpha  occ. eigenvalues --   -0.84352  -0.83577  -0.83521  -0.81980  -0.79294
 Alpha  occ. eigenvalues --   -0.73739  -0.72890  -0.72262  -0.71758  -0.69983
 Alpha  occ. eigenvalues --   -0.68893  -0.68652  -0.67896  -0.67467  -0.66821
 Alpha  occ. eigenvalues --   -0.66424  -0.66086  -0.64149  -0.61693  -0.60750
 Alpha  occ. eigenvalues --   -0.56578  -0.53013  -0.51001  -0.41988
 Alpha virt. eigenvalues --    0.03178   0.04556   0.05236   0.05463   0.07392
 Alpha virt. eigenvalues --    0.08430   0.08775   0.10932   0.11237   0.12517
 Alpha virt. eigenvalues --    0.13492   0.13597   0.14344   0.15000   0.15398

 Mulliken charges:
               1
     1  O   -0.986752
     2  C    0.342811
     3  H    0.123593
     4  C    0.583521
     5  C    2.278262
     6  C    2.252283
     7  N   -0.371213
     8  H   -0.039218
     9  H   -0.027822
    10  H    0.056682
    11  H   -0.019416
    12  F   -0.691994
    13  F   -0.704157
    14  F   -0.691678
    15  F   -0.669871
    16  F   -0.714398
    17  F   -0.720632
 Sum of Mulliken charges =  -0.00000

 Dipole moment (field-independent basis, Debye):
    X=             -0.4446    Y=              1.6567    Z=             -0.7540  Tot=              1.8737
 Quadrupole moment (field-independent basis, Debye-Ang):
   XX=            -69.6580   YY=            -63.3245   ZZ=            -66.2786
   XY=             -2.9575   XZ=              4.9175   YZ=             -5.4400

  Exact polarizability:  70.378  -3.292  68.354   0.730  -1.404  65.103
 Approx polarizability:  54.818  -1.180  56.048   0.525  -0.402  57.026

                      1                      2                      3
                      A                      A                      A
 Frequencies --     47.4639                77.2184               118.3185
 Red. masses --      8.6848                11.9647                 3.6549
 Frc consts  --      0.0115                 0.0420                 0.0301
 IR Inten    --      1.4737                 0.0132                 1.4343

                      4                      5                      6
                      A                      A                      A
 Frequencies --    172.4961               183.1885               208.3249
 Red. masses --     11.2511                 3.6796                 1.3678
 Frc consts  --      0.1972                 0.0728                 0.0350
 IR Inten    --      2.9578                 2.1603                38.2104

                      7                      8                      9
                      A                      A                      A
 Frequencies --    238.9378               273.2989               296.5660
 Red. masses --      4.9053                 7.7240                 6.2515
 Frc consts  --      0.1650                 0.3399                 0.3239
 IR Inten    --      5.4480                 2.9989                14.4346

                     10                     11                     12
                      A                      A                      A
 Frequencies --    327.3710               332.8796               342.1465
 Red. masses --      8.0678                 1.9945                 5.2082
 Frc consts  --      0.5094                 0.1302                 0.3592
 IR Inten    --      2.1293                44.8649                 4.0173

                     13                     14                     15
                      A                      A                      A
 Frequencies --    368.4559               374.5676               451.0312
 Red. masses --      7.8807                 2.0445                 9.0999
 Frc consts  --      0.6304                 0.1690                 1.0907
 IR Inten    --      0.7148                61.3876                 6.3362

                     16                     17                     18
                      A                      A                      A
 Frequencies --    514.0292               519.8669               551.4132
 Red. masses --      9.7704                13.7413                15.9473
 Frc consts  --      1.5210                 2.1881                 2.8569
 IR Inten    --      6.3693                 6.1285                 0.3148

                     19                     20                     21
                      A                      A                      A
 Frequencies --    597.6386               630.4306               704.3802
 Red. masses --      7.7866                 5.3370                11.9161
 Frc consts  --      1.6386                 1.2497                 3.4834
 IR Inten    --      2.7772                13.8977                43.2862

                     22                     23                     24
                      A                      A                      A
 Frequencies --    744.7706               814.5771               939.2907
 Red. masses --     11.4818                 1.3221                 1.9505
 Frc consts  --      3.7524                 0.5169                 1.0139
 IR Inten    --      3.0952                92.9447                38.1405

                     25                     26                     27
                      A                      A                      A
 Frequencies --    961.5111              1018.4911              1109.2942
 Red. masses --      6.3831                 2.8398                 4.2085
 Frc consts  --      3.4769                 1.7356                 3.0512
 IR Inten    --    112.2628                78.2865                24.2496

                     28                     29                     30
                      A                      A                      A
 Frequencies --   1145.7986              1153.5286              1162.2067
 Red. masses --      7.7935                 4.2875                 3.0304
 Frc consts  --      6.0283                 3.3614                 2.4117
 IR Inten    --     69.9664                12.8760               165.8165

                     31                     32                     33
                      A                      A                      A
 Frequencies --   1196.9703              1222.8716              1228.3924
 Red. masses --      3.7729                 3.4532                 8.5139
 Frc consts  --      3.1849                 3.0425                 7.5692
 IR Inten    --    243.3018               231.0107               196.5423

                     34                     35                     36
                      A                      A                      A
 Frequencies --   1305.2787              1331.4731              1356.9652
 Red. masses --      3.4436                 2.7646                 1.7034
 Frc consts  --      3.4568                 2.8877                 1.8480
 IR Inten    --     89.8790                94.9959                60.6620

                     37                     38                     39
                      A                      A                      A
 Frequencies --   1395.4980              1432.5128              1483.3578
 Red. masses --      1.7285                 1.5358                 1.0927
 Frc consts  --      1.9833                 1.8569                 1.4166
 IR Inten    --     30.9960                23.8002                 7.2752

                     40                     41                     42
                      A                      A                      A
 Frequencies --   1655.7208              3059.6492              3164.1631
 Red. masses --      1.0882                 1.0673                 1.0974
 Frc consts  --      1.7576                 5.8866                 6.4731
 IR Inten    --     24.3812                25.6995                 3.3959

                     43                     44                     45
                      A                      A                      A
 Frequencies --   3523.0667              3624.6152              3773.6422
 Red. masses --      1.0510                 1.0930                 1.0662
 Frc consts  --      7.6857                 8.4607                 8.9454
 IR Inten    --      2.1069                 9.6254                61.8777

 - Thermochemistry -
 -------------------
 Temperature   298.150 Kelvin.  Pressure   1.00000 Atm.
 Atom     1 has atomic number  8 and mass  15.99491

 Molecular mass:   197.02753 amu.
 Principal axes and moments of inertia in atomic units:
                           1         2         3
     Eigenvalues --  1472.328122044.823372458.52715
           X            0.99593  -0.08862   0.01658
           Y            0.08919   0.99531  -0.03744
           Z           -0.01319   0.03877   0.99916
 This molecule is an asymmetric top.
 Rotational symmetry number  1.
 Warning -- assumption of classical behavior for rotation
           may cause significant error
 Rotational temperatures (Kelvin)      0.05883     0.04236     0.03523
 Rotational constants (GHZ):           1.22577     0.88259     0.73407
 Zero-point vibrational energy     281922.0 (Joules/Mol)
                                   67.38096 (Kcal/Mol)
 Warning -- explicit consideration of  19 degrees of freedom as
           vibrations may cause significant error
 Vibrational temperatures:     68.29   111.10   170.23   248.18   263.57
          (Kelvin)            299.73   343.78   393.22   426.69   471.01
                              478.94   492.27   530.13   538.92   648.93
                              739.57   747.97   793.36   859.87   907.05
                             1013.45  1071.56  1171.99  1351.43  1383.40
                             1465.38  1596.03  1648.55  1659.67  1672.16
                             1722.17  1759.44  1767.38  1878.00  1915.69
                             1952.37  2007.81  2061.07  2134.22  2382.21
                             4402.15  4552.52  5068.91  5215.01  5429.43

 Zero-point correction=                           0.107378 (Hartree/Particle)
 Thermal correction to Energy=                    0.119235
 Thermal correction to Enthalpy=                  0.120179
 Thermal correction to Gibbs Free Energy=         0.069565
 Sum of electronic and zero-point Energies=           -882.499185
 Sum of electronic and thermal Energies=              -882.487329
 Sum of electronic and thermal Enthalpies=            -882.486385
 Sum of electronic and thermal Free Energies=         -882.536998

                     E (Thermal)             CV                S
                      KCal/Mol        Cal/Mol-Kelvin    Cal/Mol-Kelvin
 Total                   74.821             43.112            106.526
 Electronic               0.000              0.000              0.000
 Translational            0.889              2.981             41.740
 Rotational               0.889              2.981             30.382
 Vibrational             73.044             37.151             34.404
 Vibration     1          0.595              1.979              4.920
 Vibration     2          0.599              1.964              3.960
 Vibration     3          0.608              1.934              3.128
 Vibration     4          0.626              1.876              2.408
 Vibration     5          0.631              1.863              2.296
 Vibration     6          0.642              1.828              2.058
 Vibration     7          0.657              1.781              1.811
 Vibration     8          0.676              1.723              1.575
 Vibration     9          0.690              1.680              1.436
 Vibration    10          0.711              1.621              1.273
 Vibration    11          0.715              1.610              1.246
 Vibration    12          0.721              1.591              1.202
 Vibration    13          0.741              1.537              1.086
 Vibration    14          0.746              1.524              1.061
 Vibration    15          0.810              1.359              0.793
 Vibration    16          0.869              1.219              0.624
 Vibration    17          0.875              1.206              0.610
 Vibration    18          0.907              1.137              0.541
 Vibration    19          0.956              1.037              0.454

 Optimization completed.
    -- Stationary point found.
 Normal termination of Gaussian 16 at Tue Feb  8 16:29:32 2022.
