 Gaussian 16, Revision A.03,
 Gaussian 16:  ES64L-G16RevA.03 25-Dec-2016

 --------------------------
 # MP2/aug-cc-pVDZ opt freq
 --------------------------

 ----------------
 CF3 H Ref Closed
 ----------------
 Symbolic Z-matrix:
 Charge =  0 Multiplicity = 1

 SCF Done:  E(RHF) =  -825.408707453     A.U. after   13 cycles
 E2 =    -0.1979774419D+01 EUMP2 =    -0.82738848187237D+03
 SCF Done:  E(RHF) =  -825.416597620     A.U. after   12 cycles
 E2 =    -0.1979245938D+01 EUMP2 =    -0.82739584355867D+03
 SCF Done:  E(RHF) =  -825.418060257     A.U. after   11 cycles
 E2 =    -0.1979131578D+01 EUMP2 =    -0.82739719183560D+03
 SCF Done:  E(RHF) =  -825.419066120     A.U. after   11 cycles
 E2 =    -0.1978454231D+01 EUMP2 =    -0.82739752035068D+03
 SCF Done:  E(RHF) =  -825.419460821     A.U. after   10 cycles
 E2 =    -0.1978251522D+01 EUMP2 =    -0.82739771234294D+03
 SCF Done:  E(RHF) =  -825.419400184     A.U. after   10 cycles
 E2 =    -0.1978380615D+01 EUMP2 =    -0.82739778079864D+03
 SCF Done:  E(RHF) =  -825.419383371     A.U. after    9 cycles
 E2 =    -0.1978407360D+01 EUMP2 =    -0.82739779073186D+03
 SCF Done:  E(RHF) =  -825.419313692     A.U. after    8 cycles
 E2 =    -0.1978483933D+01 EUMP2 =    -0.82739779762536D+03
 SCF Done:  E(RHF) =  -825.419326763     A.U. after    8 cycles
 E2 =    -0.1978471475D+01 EUMP2 =    -0.82739779823786D+03
 SCF Done:  E(RHF) =  -825.419343370     A.U. after    7 cycles
 E2 =    -0.1978455135D+01 EUMP2 =    -0.82739779850504D+03
 SCF Done:  E(RHF) =  -825.419344788     A.U. after    7 cycles
 E2 =    -0.1978453738D+01 EUMP2 =    -0.82739779852614D+03
 Optimization completed.
    -- Stationary point found.
 Normal termination of Gaussian 16 at Tue Feb  8 13:49:50 2022.

 ----------------------------------------------------------------------
 #N Geom=AllCheck Guess=TCheck SCRF=Check GenChk RMP2(FC)/Aug-CC-pVDZ F
 req
 ----------------------------------------------------------------------

 Structure from the checkpoint file:  "/gscratch/scrubbed/gds001/Gau-28449.chk"
 ----------------
 CF3 H Ref Closed
 ----------------
 Charge =  0 Multiplicity = 1

                         Standard orientation:
 ---------------------------------------------------------------------
 Center     Atomic      Atomic             Coordinates (Angstroms)
 Number     Number       Type             X           Y           Z
 ---------------------------------------------------------------------
      1          8           0       -0.050033    1.097449   -1.442872
      2          6           0       -0.003336    0.601696   -0.114645
      3          1           0        0.662237    1.747439   -1.539421
      4          6           0        0.004976    1.711767    0.938183
      5          6           0        1.263767   -0.267606    0.034517
      6          6           0       -1.283151   -0.243632    0.022677
      7          1           0        0.939945    2.285077    0.857650
      8          1           0       -0.066000    1.296226    1.952319
      9          1           0       -0.846588    2.378253    0.752027
     10          9           0       -2.372831    0.559089   -0.022410
     11          9           0       -1.302109   -0.893948    1.213355
     12          9           0       -1.410903   -1.159001   -0.954423
     13          9           0        2.346746    0.501208   -0.284644
     14          9           0        1.275719   -1.335472   -0.783014
     15          9           0        1.443059   -0.705202    1.301804
 ---------------------------------------------------------------------

 SCF Done:  E(RHF) =  -825.419344788     A.U. after    1 cycles
 E2 =    -0.1978453714D+01 EUMP2 =    -0.82739779850290D+03
 E2 =    -0.1978453714D+01 EUMP2 =    -0.82739779850290D+03

 The electronic state is 1-A.
 Alpha  occ. eigenvalues --  -26.37251 -26.37162 -26.36829 -26.36712 -26.36465
 Alpha  occ. eigenvalues --  -26.36225 -20.62532 -11.54274 -11.53951 -11.37780
 Alpha  occ. eigenvalues --  -11.27406  -1.74808  -1.74057  -1.65636  -1.65466
 Alpha  occ. eigenvalues --   -1.64984  -1.64782  -1.42885  -1.12836  -0.99893
 Alpha  occ. eigenvalues --   -0.99710  -0.90806  -0.85815  -0.84422  -0.83660
 Alpha  occ. eigenvalues --   -0.83221  -0.81982  -0.77088  -0.73827  -0.73017
 Alpha  occ. eigenvalues --   -0.72021  -0.71462  -0.69669  -0.68486  -0.68284
 Alpha  occ. eigenvalues --   -0.67123  -0.66954  -0.66630  -0.65895  -0.64466
 Alpha  occ. eigenvalues --   -0.63203  -0.58802  -0.57056  -0.54536  -0.50726
 Alpha virt. eigenvalues --    0.02936   0.04554   0.05520   0.06300   0.08191
 Alpha virt. eigenvalues --    0.08649   0.10745   0.10892   0.11056   0.13677
 Alpha virt. eigenvalues --    0.13927   0.14151   0.14807   0.15317   0.16252

 Mulliken charges:
               1
     1  O   -0.868419
     2  C   -0.796648
     3  H    0.129955
     4  C    0.716638
     5  C    2.401445
     6  C    2.228096
     7  H    0.013296
     8  H    0.088814
     9  H    0.078823
    10  F   -0.674585
    11  F   -0.658476
    12  F   -0.656324
    13  F   -0.678160
    14  F   -0.662142
    15  F   -0.662313
 Sum of Mulliken charges =  -0.00000

 Dipole moment (field-independent basis, Debye):
    X=              1.0335    Y=              3.1306    Z=              0.8959  Tot=              3.4164
 Quadrupole moment (field-independent basis, Debye-Ang):
   XX=            -64.7155   YY=            -56.2426   ZZ=            -61.7197
   XY=              2.2351   XZ=             -1.9937   YZ=              0.0821

  Exact polarizability:  58.955   0.464  59.608  -0.221   0.765  58.695
 Approx polarizability:  47.333   0.738  48.881  -0.019  -0.468  50.274

                      1                      2                      3
                      A                      A                      A
 Frequencies --     41.6512                97.3806               166.8542
 Red. masses --     15.4808                 9.4489                13.8475
 Frc consts  --      0.0158                 0.0528                 0.2271
 IR Inten    --      0.0015                 2.2380                 1.3560

                      4                      5                      6
                      A                      A                      A
 Frequencies --    218.3360               234.0397               240.2829
 Red. masses --      1.3156                 2.4373                 1.7113
 Frc consts  --      0.0370                 0.0787                 0.0582
 IR Inten    --      4.9105                18.8695                63.5567

                      7                      8                      9
                      A                      A                      A
 Frequencies --    251.9924               291.2229               327.6332
 Red. masses --      2.6236                 6.5900                10.0340
 Frc consts  --      0.0982                 0.3293                 0.6346
 IR Inten    --     21.3620                 8.5132                 0.4391

                     10                     11                     12
                      A                      A                      A
 Frequencies --    332.6951               352.1934               358.0201
 Red. masses --      5.1764                 9.7639                 4.5187
 Frc consts  --      0.3376                 0.7136                 0.3413
 IR Inten    --      1.8628                 2.2036                 0.4185

                     13                     14                     15
                      A                      A                      A
 Frequencies --    453.3608               503.7983               520.3056
 Red. masses --     10.9229                 7.7051                17.3857
 Frc consts  --      1.3227                 1.1522                 2.7731
 IR Inten    --      5.2012                11.0834                 4.7955

                     16                     17                     18
                      A                      A                      A
 Frequencies --    549.2178               601.2862               626.1711
 Red. masses --     15.4659                 9.6042                 6.6054
 Frc consts  --      2.7486                 2.0458                 1.5259
 IR Inten    --      0.1559                 1.2993                13.6572

                     19                     20                     21
                      A                      A                      A
 Frequencies --    684.0870               747.8953               869.4649
 Red. masses --      8.2177                13.8316                 2.8782
 Frc consts  --      2.2658                 4.5583                 1.2820
 IR Inten    --     29.7223                 1.7547                28.8390

                     22                     23                     24
                      A                      A                      A
 Frequencies --    959.3680              1072.0547              1113.7783
 Red. masses --      2.0896                 2.0167                 2.7914
 Frc consts  --      1.1332                 1.3656                 2.0402
 IR Inten    --     18.8726               176.4027               168.4681

                     25                     26                     27
                      A                      A                      A
 Frequencies --   1140.2836              1184.7014              1194.5353
 Red. masses --      8.2009                 9.1450                 9.9212
 Frc consts  --      6.2826                 7.5622                 8.3409
 IR Inten    --     31.2794                 4.6942               117.2021

                     28                     29                     30
                      A                      A                      A
 Frequencies --   1198.5245              1237.7615              1252.3136
 Red. masses --     10.2506                 7.3573                 2.2283
 Frc consts  --      8.6755                 6.6412                 2.0590
 IR Inten    --    409.4414               148.6914               190.3030

                     31                     32                     33
                      A                      A                      A
 Frequencies --   1346.3863              1401.0142              1423.9371
 Red. masses --      7.1429                 1.3187                 2.1242
 Frc consts  --      7.6290                 1.5250                 2.5377
 IR Inten    --    110.3743                11.4444                41.0331

                     34                     35                     36
                      A                      A                      A
 Frequencies --   1492.1962              1503.6128              3089.1843
 Red. masses --      1.0651                 1.1893                 1.0354
 Frc consts  --      1.3973                 1.5842                 5.8217
 IR Inten    --      8.7405                32.1573                 4.0389

                     37                     38                     39
                      A                      A                      A
 Frequencies --   3186.7309              3205.2909              3800.2861
 Red. masses --      1.1019                 1.1037                 1.0666
 Frc consts  --      6.5932                 6.6807                 9.0754
 IR Inten    --      3.6490                 1.3313                58.4337

 - Thermochemistry -
 -------------------
 Temperature   298.150 Kelvin.  Pressure   1.00000 Atm.
 Atom     1 has atomic number  8 and mass  15.99491

 Molecular mass:   182.01663 amu.
 Principal axes and moments of inertia in atomic units:
                           1         2         3
     Eigenvalues --  1115.671791910.185282013.34127
           X            0.99997   0.00641  -0.00327
           Y           -0.00594   0.99187   0.12715
           Z            0.00406  -0.12713   0.99188
 This molecule is an asymmetric top.
 Rotational symmetry number  1.
 Warning -- assumption of classical behavior for rotation
           may cause significant error
 Rotational temperatures (Kelvin)      0.07763     0.04534     0.04302
 Rotational constants (GHZ):           1.61763     0.94480     0.89639
 Zero-point vibrational energy     234885.9 (Joules/Mol)
                                   56.13907 (Kcal/Mol)
 Warning -- explicit consideration of  17 degrees of freedom as
           vibrations may cause significant error
 Vibrational temperatures:     59.93   140.11   240.07   314.14   336.73
          (Kelvin)            345.71   362.56   419.00   471.39   478.67
                              506.73   515.11   652.29   724.85   748.60
                              790.20   865.12   900.92   984.25  1076.05
                             1250.97  1380.32  1542.45  1602.48  1640.61
                             1704.52  1718.67  1724.41  1780.86  1801.80
                             1937.15  2015.75  2048.73  2146.94  2163.36
                             4444.65  4585.00  4611.70  5467.76

 Zero-point correction=                           0.089463 (Hartree/Particle)
 Thermal correction to Energy=                    0.100129
 Thermal correction to Enthalpy=                  0.101074
 Thermal correction to Gibbs Free Energy=         0.053152
 Sum of electronic and zero-point Energies=           -827.308335
 Sum of electronic and thermal Energies=              -827.297669
 Sum of electronic and thermal Enthalpies=            -827.296725
 Sum of electronic and thermal Free Energies=         -827.344647

                     E (Thermal)             CV                S
                      KCal/Mol        Cal/Mol-Kelvin    Cal/Mol-Kelvin
 Total                   62.832             38.767            100.860
 Electronic               0.000              0.000              0.000
 Translational            0.889              2.981             41.503
 Rotational               0.889              2.981             29.841
 Vibrational             61.055             32.805             29.516
 Vibration     1          0.594              1.981              5.179
 Vibration     2          0.603              1.951              3.506
 Vibration     3          0.624              1.883              2.471
 Vibration     4          0.646              1.813              1.973
 Vibration     5          0.654              1.789              1.848
 Vibration     6          0.657              1.779              1.801
 Vibration     7          0.664              1.759              1.717
 Vibration     8          0.687              1.690              1.467
 Vibration     9          0.711              1.620              1.272
 Vibration    10          0.715              1.610              1.247
 Vibration    11          0.729              1.571              1.156
 Vibration    12          0.733              1.559              1.131
 Vibration    13          0.812              1.353              0.786
 Vibration    14          0.859              1.242              0.649
 Vibration    15          0.875              1.205              0.609
 Vibration    16          0.904              1.141              0.546
 Vibration    17          0.960              1.029              0.447

 Optimization completed.
    -- Stationary point found.
 Normal termination of Gaussian 16 at Tue Feb  8 14:36:38 2022.
