 Gaussian 16, Revision A.03,
 Gaussian 16:  ES64L-G16RevA.03 25-Dec-2016

 --------------------------
 # MP2/aug-cc-pVDZ opt freq
 --------------------------

 --------------
 CF3 H Ref Open
 --------------
 Symbolic Z-matrix:
 Charge =  0 Multiplicity = 1

 SCF Done:  E(RHF) =  -825.414519890     A.U. after   12 cycles
 E2 =    -0.1980208469D+01 EUMP2 =    -0.82739472835983D+03
 SCF Done:  E(RHF) =  -825.419505619     A.U. after   12 cycles
 E2 =    -0.1979282483D+01 EUMP2 =    -0.82739878810188D+03
 SCF Done:  E(RHF) =  -825.421337893     A.U. after   11 cycles
 E2 =    -0.1979267485D+01 EUMP2 =    -0.82740060537825D+03
 SCF Done:  E(RHF) =  -825.421964899     A.U. after   11 cycles
 E2 =    -0.1978751397D+01 EUMP2 =    -0.82740071629586D+03
 SCF Done:  E(RHF) =  -825.422004939     A.U. after   10 cycles
 E2 =    -0.1978726483D+01 EUMP2 =    -0.82740073142242D+03
 SCF Done:  E(RHF) =  -825.421928506     A.U. after    8 cycles
 E2 =    -0.1978807714D+01 EUMP2 =    -0.82740073622026D+03
 Optimization completed.
    -- Stationary point found.
 Normal termination of Gaussian 16 at Tue Feb  8 13:25:56 2022.

 ----------------------------------------------------------------------
 #N Geom=AllCheck Guess=TCheck SCRF=Check GenChk RMP2(FC)/Aug-CC-pVDZ F
 req
 ----------------------------------------------------------------------

 Structure from the checkpoint file:  "/gscratch/scrubbed/gds001/Gau-28538.chk"
 --------------
 CF3 H Ref Open
 --------------
 Charge =  0 Multiplicity = 1

                         Standard orientation:
 ---------------------------------------------------------------------
 Center     Atomic      Atomic             Coordinates (Angstroms)
 Number     Number       Type             X           Y           Z
 ---------------------------------------------------------------------
      1          8           0        0.000001    1.139816   -1.443497
      2          6           0       -0.000000    0.608567   -0.130602
      3          1           0        0.000007    0.400662   -2.073564
      4          6           0       -0.000002    1.774552    0.850909
      5          6           0        1.275362   -0.240452    0.054355
      6          6           0       -1.275362   -0.240452    0.054354
      7          1           0        0.894265    2.385195    0.675149
      8          1           0        0.000029    1.408648    1.886644
      9          1           0       -0.894300    2.385162    0.675192
     10          9           0       -2.372271    0.537439   -0.091395
     11          9           0       -1.343188   -0.821070    1.272855
     12          9           0       -1.354517   -1.222562   -0.880882
     13          9           0        2.372271    0.537450   -0.091335
     14          9           0        1.354546   -1.222525   -0.880917
     15          9           0        1.343159   -0.821118    1.272835
 ---------------------------------------------------------------------

 SCF Done:  E(RHF) =  -825.421928506     A.U. after    1 cycles
 E2 =    -0.1978807693D+01 EUMP2 =    -0.82740073619916D+03
 E2 =    -0.1978807693D+01 EUMP2 =    -0.82740073619913D+03

 The electronic state is 1-A.
 Alpha  occ. eigenvalues --  -26.37310 -26.37309 -26.37256 -26.37256 -26.36984
 Alpha  occ. eigenvalues --  -26.36984 -20.62606 -11.54394 -11.54393 -11.37747
 Alpha  occ. eigenvalues --  -11.26739  -1.75095  -1.74504  -1.66003  -1.65599
 Alpha  occ. eigenvalues --   -1.65477  -1.65317  -1.42914  -1.12843  -1.00110
 Alpha  occ. eigenvalues --   -0.99666  -0.90565  -0.85701  -0.84589  -0.83966
 Alpha  occ. eigenvalues --   -0.83637  -0.82243  -0.79771  -0.74309  -0.72831
 Alpha  occ. eigenvalues --   -0.72526  -0.71746  -0.69215  -0.68795  -0.68676
 Alpha  occ. eigenvalues --   -0.67806  -0.67454  -0.67117  -0.66345  -0.63580
 Alpha  occ. eigenvalues --   -0.62364  -0.57833  -0.57210  -0.54542  -0.51331
 Alpha virt. eigenvalues --    0.03685   0.04526   0.05964   0.06071   0.08199
 Alpha virt. eigenvalues --    0.08408   0.10578   0.10845   0.11029   0.13791
 Alpha virt. eigenvalues --    0.13990   0.14365   0.15102   0.15553   0.16890

 Mulliken charges:
               1
     1  O   -0.792525
     2  C   -1.110819
     3  H    0.125915
     4  C    0.678940
     5  C    2.405573
     6  C    2.405575
     7  H    0.081174
     8  H    0.118619
     9  H    0.081173
    10  F   -0.656757
    11  F   -0.656575
    12  F   -0.683479
    13  F   -0.656760
    14  F   -0.683478
    15  F   -0.656576
 Sum of Mulliken charges =  -0.00000

 Dipole moment (field-independent basis, Debye):
    X=              0.0000    Y=              1.1753    Z=              0.1054  Tot=              1.1800
 Quadrupole moment (field-independent basis, Debye-Ang):
   XX=            -65.4382   YY=            -61.1367   ZZ=            -58.2393
   XY=             -0.0000   XZ=             -0.0000   YZ=              3.6516

  Exact polarizability:  58.516  -0.000  59.207  -0.000   1.533  59.138
 Approx polarizability:  46.502  -0.000  48.983  -0.000   0.351  50.793

                      1                      2                      3
                      A                      A                      A
 Frequencies --     33.7639               102.8047               173.3317
 Red. masses --     15.2824                 8.8176                14.0456
 Frc consts  --      0.0103                 0.0549                 0.2486
 IR Inten    --      0.0689                 0.0073                 1.1337

                      4                      5                      6
                      A                      A                      A
 Frequencies --    192.9750               233.0244               242.4294
 Red. masses --      1.1721                 7.2702                 4.1314
 Frc consts  --      0.0257                 0.2326                 0.1431
 IR Inten    --      1.3661                 3.2098                 0.2368

                      7                      8                      9
                      A                      A                      A
 Frequencies --    287.2426               326.4584               330.0386
 Red. masses --      6.8882                10.9171                 4.2533
 Frc consts  --      0.3349                 0.6855                 0.2730
 IR Inten    --      1.9635                 2.5953                10.2973

                     10                     11                     12
                      A                      A                      A
 Frequencies --    348.7458               354.5567               393.6992
 Red. masses --      5.2878                 4.6417                 1.2819
 Frc consts  --      0.3789                 0.3438                 0.1171
 IR Inten    --      2.3546                 6.4369               109.7583

                     13                     14                     15
                      A                      A                      A
 Frequencies --    456.0916               501.1031               516.3738
 Red. masses --      9.2950                 8.0045                17.5322
 Frc consts  --      1.1392                 1.1842                 2.7543
 IR Inten    --      7.5025                 8.2056                 5.1878

                     16                     17                     18
                      A                      A                      A
 Frequencies --    551.2421               604.2429               626.0790
 Red. masses --     14.6514                 8.3474                 6.9348
 Frc consts  --      2.6231                 1.7957                 1.6016
 IR Inten    --      0.2698                 2.9489                10.8081

                     19                     20                     21
                      A                      A                      A
 Frequencies --    685.1050               746.3824               876.1983
 Red. masses --      9.6132                14.2828                 2.8863
 Frc consts  --      2.6585                 4.6880                 1.3056
 IR Inten    --     33.1877                 1.1280                24.9546

                     22                     23                     24
                      A                      A                      A
 Frequencies --    968.4170              1092.6837              1093.2274
 Red. masses --      2.0330                 2.3497                 2.5215
 Frc consts  --      1.1233                 1.6529                 1.7755
 IR Inten    --     13.5375                96.6721               213.6256

                     25                     26                     27
                      A                      A                      A
 Frequencies --   1143.9119              1164.4219              1188.1139
 Red. masses --      9.6264                11.2923                 5.7047
 Frc consts  --      7.4216                 9.0209                 4.7446
 IR Inten    --     20.5734                17.2543               216.4236

                     28                     29                     30
                      A                      A                      A
 Frequencies --   1215.9442              1223.1027              1304.1341
 Red. masses --     10.4591                 6.2072                 3.1501
 Frc consts  --      9.1111                 5.4710                 3.1566
 IR Inten    --    280.2870               287.6544               114.2075

                     31                     32                     33
                      A                      A                      A
 Frequencies --   1354.9092              1393.0896              1413.6320
 Red. masses --      5.6637                 1.7024                 1.5708
 Frc consts  --      6.1259                 1.9466                 1.8495
 IR Inten    --    117.6443                21.3226                10.7760

                     34                     35                     36
                      A                      A                      A
 Frequencies --   1489.5785              1499.2620              3099.3055
 Red. masses --      1.0927                 1.0685                 1.0347
 Frc consts  --      1.4285                 1.4151                 5.8560
 IR Inten    --     24.2608                 2.9697                 2.8756

                     37                     38                     39
                      A                      A                      A
 Frequencies --   3204.0521              3210.6602              3770.4887
 Red. masses --      1.1031                 1.1035                 1.0660
 Frc consts  --      6.6719                 6.7022                 8.9290
 IR Inten    --      1.6966                 1.2062                61.8477

 - Thermochemistry -
 -------------------
 Temperature   298.150 Kelvin.  Pressure   1.00000 Atm.
 Atom     1 has atomic number  8 and mass  15.99491

 Molecular mass:   182.01663 amu.
 Principal axes and moments of inertia in atomic units:
                           1         2         3
     Eigenvalues --  1119.187751908.253392015.99224
           X            1.00000  -0.00000  -0.00000
           Y            0.00000   0.98539   0.17030
           Z            0.00000  -0.17030   0.98539
 This molecule is an asymmetric top.
 Rotational symmetry number  1.
 Warning -- assumption of classical behavior for rotation
           may cause significant error
 Rotational temperatures (Kelvin)      0.07739     0.04539     0.04296
 Rotational constants (GHZ):           1.61255     0.94576     0.89521
 Zero-point vibrational energy     235729.1 (Joules/Mol)
                                   56.34060 (Kcal/Mol)
 Warning -- explicit consideration of  17 degrees of freedom as
           vibrations may cause significant error
 Vibrational temperatures:     48.58   147.91   249.39   277.65   335.27
          (Kelvin)            348.80   413.28   469.70   474.85   501.77
                              510.13   566.45   656.21   720.98   742.95
                              793.11   869.37   900.79   985.71  1073.88
                             1260.65  1393.34  1572.13  1572.91  1645.83
                             1675.34  1709.43  1749.47  1759.77  1876.36
                             1949.41  2004.35  2033.90  2143.17  2157.10
                             4459.21  4609.92  4619.42  5424.89

 Zero-point correction=                           0.089784 (Hartree/Particle)
 Thermal correction to Energy=                    0.100329
 Thermal correction to Enthalpy=                  0.101273
 Thermal correction to Gibbs Free Energy=         0.053450
 Sum of electronic and zero-point Energies=           -827.310952
 Sum of electronic and thermal Energies=              -827.300408
 Sum of electronic and thermal Enthalpies=            -827.299463
 Sum of electronic and thermal Free Energies=         -827.347286

                     E (Thermal)             CV                S
                      KCal/Mol        Cal/Mol-Kelvin    Cal/Mol-Kelvin
 Total                   62.957             38.513            100.651
 Electronic               0.000              0.000              0.000
 Translational            0.889              2.981             41.503
 Rotational               0.889              2.981             29.844
 Vibrational             61.180             32.552             29.303
 Vibration     1          0.594              1.983              5.595
 Vibration     2          0.605              1.947              3.400
 Vibration     3          0.627              1.875              2.399
 Vibration     4          0.635              1.850              2.199
 Vibration     5          0.654              1.790              1.856
 Vibration     6          0.659              1.775              1.785
 Vibration     7          0.684              1.697              1.490
 Vibration     8          0.710              1.623              1.278
 Vibration     9          0.713              1.615              1.260
 Vibration    10          0.726              1.578              1.172
 Vibration    11          0.730              1.566              1.146
 Vibration    12          0.761              1.484              0.986
 Vibration    13          0.814              1.347              0.778
 Vibration    14          0.856              1.248              0.655
 Vibration    15          0.871              1.214              0.618
 Vibration    16          0.907              1.137              0.542
 Vibration    17          0.963              1.023              0.442

 Optimization completed.
    -- Stationary point found.
 Normal termination of Gaussian 16 at Tue Feb  8 14:12:53 2022.
