 Gaussian 16, Revision A.03,
 Gaussian 16:  ES64L-G16RevA.03 25-Dec-2016

 --------------------------
 # MP2/aug-cc-pVDZ opt freq
 --------------------------

 ------------
 H CF3 Closed
 ------------
 Symbolic Z-matrix:
 Charge =  0 Multiplicity = 1

 SCF Done:  E(RHF) =  -880.438489537     A.U. after   13 cycles
 E2 =    -0.2162715906D+01 EUMP2 =    -0.88260120544253D+03
 SCF Done:  E(RHF) =  -880.447497681     A.U. after   13 cycles
 E2 =    -0.2161824112D+01 EUMP2 =    -0.88260932179261D+03
 SCF Done:  E(RHF) =  -880.449824814     A.U. after   12 cycles
 E2 =    -0.2161519424D+01 EUMP2 =    -0.88261134423806D+03
 SCF Done:  E(RHF) =  -880.450843231     A.U. after   11 cycles
 E2 =    -0.2160886105D+01 EUMP2 =    -0.88261172933552D+03
 SCF Done:  E(RHF) =  -880.451311590     A.U. after   11 cycles
 E2 =    -0.2160500487D+01 EUMP2 =    -0.88261181207737D+03
 SCF Done:  E(RHF) =  -880.451288144     A.U. after   10 cycles
 E2 =    -0.2160574698D+01 EUMP2 =    -0.88261186284212D+03
 SCF Done:  E(RHF) =  -880.451185397     A.U. after   11 cycles
 E2 =    -0.2160710562D+01 EUMP2 =    -0.88261189595929D+03
 SCF Done:  E(RHF) =  -880.451130286     A.U. after   11 cycles
 E2 =    -0.2160783097D+01 EUMP2 =    -0.88261191338288D+03
 SCF Done:  E(RHF) =  -880.451123959     A.U. after    9 cycles
 E2 =    -0.2160810525D+01 EUMP2 =    -0.88261193448482D+03
 SCF Done:  E(RHF) =  -880.450991731     A.U. after   11 cycles
 E2 =    -0.2160956853D+01 EUMP2 =    -0.88261194858395D+03
 SCF Done:  E(RHF) =  -880.451052865     A.U. after   11 cycles
 E2 =    -0.2160903252D+01 EUMP2 =    -0.88261195611658D+03
 SCF Done:  E(RHF) =  -880.451031184     A.U. after   10 cycles
 E2 =    -0.2160929937D+01 EUMP2 =    -0.88261196112049D+03
 SCF Done:  E(RHF) =  -880.451039626     A.U. after    8 cycles
 E2 =    -0.2160921884D+01 EUMP2 =    -0.88261196150990D+03
 Optimization completed.
    -- Stationary point found.
 Normal termination of Gaussian 16 at Tue Feb  8 14:34:58 2022.

 ----------------------------------------------------------------------
 #N Geom=AllCheck Guess=TCheck SCRF=Check GenChk RMP2(FC)/Aug-CC-pVDZ F
 req
 ----------------------------------------------------------------------

 Structure from the checkpoint file:  "/gscratch/scrubbed/gds001/Gau-30060.chk"
 ------------
 H CF3 Closed
 ------------
 Charge =  0 Multiplicity = 1

                         Standard orientation:
 ---------------------------------------------------------------------
 Center     Atomic      Atomic             Coordinates (Angstroms)
 Number     Number       Type             X           Y           Z
 ---------------------------------------------------------------------
      1          8           0       -1.663670    2.172322   -0.258634
      2          6           0       -0.453866    1.565141   -0.675046
      3          1           0       -1.711980    2.050169    0.705345
      4          6           0       -0.064184    0.359092    0.223500
      5          1           0        0.382711    2.286622   -0.641381
      6          1           0       -0.579910    1.231113   -1.714416
      7          7           0       -0.264045    0.736178    1.619370
      8          6           0        1.409304    0.006804   -0.076095
      9          6           0       -0.968308   -0.854700   -0.060120
     10          1           0        0.442237    1.419828    1.895729
     11          1           0       -0.164898   -0.072381    2.234291
     12          9           0       -0.758753   -1.848013    0.846867
     13          9           0       -0.730928   -1.367600   -1.289725
     14          9           0       -2.273125   -0.531750    0.007771
     15          9           0        1.807486   -1.137262    0.525032
     16          9           0        2.213191    1.002225    0.396507
     17          9           0        1.658999   -0.107066   -1.399731
 ---------------------------------------------------------------------

 SCF Done:  E(RHF) =  -880.451039626     A.U. after    1 cycles
 E2 =    -0.2160921871D+01 EUMP2 =    -0.88261196149714D+03
 E2 =    -0.2160921871D+01 EUMP2 =    -0.88261196149714D+03

 The electronic state is 1-A.
 Alpha  occ. eigenvalues --  -26.37752 -26.37596 -26.37566 -26.37127 -26.36963
 Alpha  occ. eigenvalues --  -26.36682 -20.58380 -15.61533 -11.54850 -11.54488
 Alpha  occ. eigenvalues --  -11.35785 -11.32428  -1.75338  -1.74507  -1.66156
 Alpha  occ. eigenvalues --   -1.65999  -1.65451  -1.65181  -1.38522  -1.26493
 Alpha  occ. eigenvalues --   -1.09419  -1.00157  -0.97353  -0.90130  -0.85764
 Alpha  occ. eigenvalues --   -0.84634  -0.84128  -0.83688  -0.82248  -0.78487
 Alpha  occ. eigenvalues --   -0.74565  -0.73395  -0.72474  -0.71995  -0.70706
 Alpha  occ. eigenvalues --   -0.69009  -0.68908  -0.68435  -0.67491  -0.67277
 Alpha  occ. eigenvalues --   -0.66550  -0.66346  -0.65176  -0.64245  -0.59906
 Alpha  occ. eigenvalues --   -0.57777  -0.52602  -0.47514  -0.46285
 Alpha virt. eigenvalues --    0.02922   0.04562   0.05486   0.06113   0.07081
 Alpha virt. eigenvalues --    0.08053   0.08423   0.10691   0.10806   0.13032
 Alpha virt. eigenvalues --    0.13468   0.13608   0.14064   0.14478   0.15946

 Mulliken charges:
               1
     1  O   -0.746333
     2  C    1.356820
     3  H    0.224345
     4  C   -1.121342
     5  H    0.007324
     6  H   -0.062944
     7  N   -0.461078
     8  C    2.532567
     9  C    2.370482
    10  H    0.026928
    11  H    0.004108
    12  F   -0.696401
    13  F   -0.685336
    14  F   -0.693975
    15  F   -0.690823
    16  F   -0.683003
    17  F   -0.681340
 Sum of Mulliken charges =  -0.00000

 Dipole moment (field-independent basis, Debye):
    X=              1.3928    Y=              0.9861    Z=              2.0016  Tot=              2.6304
 Quadrupole moment (field-independent basis, Debye-Ang):
   XX=            -74.5796   YY=            -70.0733   ZZ=            -62.0087
   XY=              3.7777   XZ=             -0.2187   YZ=              1.9312

  Exact polarizability:  67.891  -2.374  67.478  -0.592  -0.505  66.642
 Approx polarizability:  54.538  -0.800  55.191  -0.443  -0.297  57.989

                      1                      2                      3
                      A                      A                      A
 Frequencies --     34.6908                80.7614               129.0095
 Red. masses --     15.6614                11.8984                 4.3652
 Frc consts  --      0.0111                 0.0457                 0.0428
 IR Inten    --      0.1395                 1.4138                 8.7824

                      4                      5                      6
                      A                      A                      A
 Frequencies --    174.9460               196.7859               230.8679
 Red. masses --     13.1035                 6.0523                 4.2675
 Frc consts  --      0.2363                 0.1381                 0.1340
 IR Inten    --      0.4179                 2.9314                 2.2199

                      7                      8                      9
                      A                      A                      A
 Frequencies --    267.4062               278.7466               292.0674
 Red. masses --      1.6163                 2.4063                 6.8774
 Frc consts  --      0.0681                 0.1102                 0.3457
 IR Inten    --      0.0883                 8.7199                 0.0916

                     10                     11                     12
                      A                      A                      A
 Frequencies --    328.2431               342.0530               348.1852
 Red. masses --      8.6730                 5.6355                 4.9268
 Frc consts  --      0.5506                 0.3885                 0.3519
 IR Inten    --      2.7387                 9.1828                 1.8258

                     13                     14                     15
                      A                      A                      A
 Frequencies --    361.7192               448.6559               476.1451
 Red. masses --      5.2714                 4.4849                 1.4948
 Frc consts  --      0.4064                 0.5319                 0.1997
 IR Inten    --     12.9307                23.3692                86.4136

                     16                     17                     18
                      A                      A                      A
 Frequencies --    518.6797               527.7293               552.2002
 Red. masses --     13.6052                10.0491                15.1551
 Frc consts  --      2.1565                 1.6489                 2.7227
 IR Inten    --     10.5770                 7.8308                 0.8788

                     19                     20                     21
                      A                      A                      A
 Frequencies --    596.4596               647.7299               702.3095
 Red. masses --      8.2092                 5.3242                 9.2901
 Frc consts  --      1.7207                 1.3161                 2.6998
 IR Inten    --      5.9670                35.5889                 9.5856

                     22                     23                     24
                      A                      A                      A
 Frequencies --    751.8982               849.6296               932.4468
 Red. masses --     10.8637                 1.8727                 1.8665
 Frc consts  --      3.6186                 0.7965                 0.9562
 IR Inten    --      3.1914                82.6342                34.2722

                     25                     26                     27
                      A                      A                      A
 Frequencies --   1003.6651              1028.4493              1099.4019
 Red. masses --      5.6151                 1.9685                 4.6641
 Frc consts  --      3.3326                 1.2267                 3.3215
 IR Inten    --    215.9833                42.0170                28.9134

                     28                     29                     30
                      A                      A                      A
 Frequencies --   1137.8454              1154.3654              1174.7438
 Red. masses --      8.3075                10.0985                 2.3226
 Frc consts  --      6.3371                 7.9285                 1.8885
 IR Inten    --     79.9730                48.2691                76.7373

                     31                     32                     33
                      A                      A                      A
 Frequencies --   1199.3275              1219.5872              1249.5212
 Red. masses --      5.4285                11.3178                 1.7587
 Frc consts  --      4.6005                 9.9183                 1.6178
 IR Inten    --    337.1898               168.8253               124.1511

                     34                     35                     36
                      A                      A                      A
 Frequencies --   1267.6281              1314.2537              1347.0150
 Red. masses --      3.4488                 6.0692                 1.3993
 Frc consts  --      3.2651                 6.1765                 1.4959
 IR Inten    --    112.0287               168.2857                17.2798

                     37                     38                     39
                      A                      A                      A
 Frequencies --   1421.2175              1442.9997              1509.8540
 Red. masses --      2.1240                 1.3374                 1.0870
 Frc consts  --      2.5277                 1.6408                 1.4601
 IR Inten    --     52.5474                50.5742                 3.2633

                     40                     41                     42
                      A                      A                      A
 Frequencies --   1643.3267              3059.1630              3158.4602
 Red. masses --      1.1002                 1.0666                 1.0985
 Frc consts  --      1.7505                 5.8811                 6.4566
 IR Inten    --     42.5968                29.2148                 6.2688

                     43                     44                     45
                      A                      A                      A
 Frequencies --   3506.7773              3605.4959              3722.5628
 Red. masses --      1.0500                 1.0932                 1.0653
 Frc consts  --      7.6077                 8.3732                 8.6980
 IR Inten    --     13.5765                26.3001                71.8826

 - Thermochemistry -
 -------------------
 Temperature   298.150 Kelvin.  Pressure   1.00000 Atm.
 Atom     1 has atomic number  8 and mass  15.99491

 Molecular mass:   197.02753 amu.
 Principal axes and moments of inertia in atomic units:
                           1         2         3
     Eigenvalues --  1541.641882001.832972492.73455
           X            0.99873  -0.05043   0.00055
           Y            0.05043   0.99872   0.00309
           Z           -0.00071  -0.00306   1.00000
 This molecule is an asymmetric top.
 Rotational symmetry number  1.
 Warning -- assumption of classical behavior for rotation
           may cause significant error
 Rotational temperatures (Kelvin)      0.05618     0.04327     0.03475
 Rotational constants (GHZ):           1.17066     0.90154     0.72400
 Zero-point vibrational energy     283126.3 (Joules/Mol)
                                   67.66882 (Kcal/Mol)
 Warning -- explicit consideration of  19 degrees of freedom as
           vibrations may cause significant error
 Vibrational temperatures:     49.91   116.20   185.62   251.71   283.13
          (Kelvin)            332.17   384.74   401.05   420.22   472.27
                              492.14   500.96   520.43   645.52   685.07
                              746.26   759.28   794.49   858.17   931.94
                             1010.47  1081.81  1222.43  1341.58  1444.05
                             1479.71  1581.79  1637.11  1660.87  1690.19
                             1725.56  1754.71  1797.78  1823.83  1890.92
                             1938.05  2044.81  2076.15  2172.34  2364.38
                             4401.45  4544.32  5045.47  5187.50  5355.94

 Zero-point correction=                           0.107837 (Hartree/Particle)
 Thermal correction to Energy=                    0.119458
 Thermal correction to Enthalpy=                  0.120402
 Thermal correction to Gibbs Free Energy=         0.070086
 Sum of electronic and zero-point Energies=           -882.504124
 Sum of electronic and thermal Energies=              -882.492503
 Sum of electronic and thermal Enthalpies=            -882.491559
 Sum of electronic and thermal Free Energies=         -882.541875

                     E (Thermal)             CV                S
                      KCal/Mol        Cal/Mol-Kelvin    Cal/Mol-Kelvin
 Total                   74.961             42.596            105.899
 Electronic               0.000              0.000              0.000
 Translational            0.889              2.981             41.740
 Rotational               0.889              2.981             30.421
 Vibrational             73.184             36.635             33.739
 Vibration     1          0.594              1.983              5.541
 Vibration     2          0.600              1.962              3.872
 Vibration     3          0.611              1.924              2.961
 Vibration     4          0.627              1.873              2.382
 Vibration     5          0.636              1.844              2.163
 Vibration     6          0.653              1.794              1.872
 Vibration     7          0.673              1.733              1.613
 Vibration     8          0.679              1.713              1.541
 Vibration     9          0.687              1.689              1.462
 Vibration    10          0.711              1.619              1.269
 Vibration    11          0.721              1.591              1.203
 Vibration    12          0.726              1.579              1.174
 Vibration    13          0.736              1.551              1.115
 Vibration    14          0.808              1.364              0.800
 Vibration    15          0.833              1.303              0.721
 Vibration    16          0.874              1.209              0.613
 Vibration    17          0.883              1.189              0.592
 Vibration    18          0.908              1.135              0.540
 Vibration    19          0.954              1.039              0.456

 Optimization completed.
    -- Stationary point found.
 Normal termination of Gaussian 16 at Tue Feb  8 15:45:21 2022.
