 Gaussian 16, Revision A.03,
 Gaussian 16:  ES64L-G16RevA.03 25-Dec-2016

 --------------------------
 # MP2/aug-cc-pVDZ opt freq
 --------------------------

 ----------
 H CF3 Open
 ----------
 Symbolic Z-matrix:
 Charge =  0 Multiplicity = 1

 SCF Done:  E(RHF) =  -880.433697984     A.U. after   13 cycles
 E2 =    -0.2159905349D+01 EUMP2 =    -0.88259360333332D+03
 SCF Done:  E(RHF) =  -880.441576585     A.U. after   12 cycles
 E2 =    -0.2160394371D+01 EUMP2 =    -0.88260197095646D+03
 SCF Done:  E(RHF) =  -880.444233639     A.U. after   12 cycles
 E2 =    -0.2160111738D+01 EUMP2 =    -0.88260434537756D+03
 SCF Done:  E(RHF) =  -880.445335043     A.U. after   11 cycles
 E2 =    -0.2159768976D+01 EUMP2 =    -0.88260510401904D+03
 SCF Done:  E(RHF) =  -880.446083430     A.U. after   11 cycles
 E2 =    -0.2159186742D+01 EUMP2 =    -0.88260527017199D+03
 SCF Done:  E(RHF) =  -880.446285193     A.U. after   11 cycles
 E2 =    -0.2159123277D+01 EUMP2 =    -0.88260540847064D+03
 SCF Done:  E(RHF) =  -880.446557895     A.U. after   11 cycles
 E2 =    -0.2159075752D+01 EUMP2 =    -0.88260563364724D+03
 SCF Done:  E(RHF) =  -880.446530239     A.U. after   11 cycles
 E2 =    -0.2159135182D+01 EUMP2 =    -0.88260566542093D+03
 SCF Done:  E(RHF) =  -880.447107168     A.U. after   12 cycles
 E2 =    -0.2158988753D+01 EUMP2 =    -0.88260609592166D+03
 SCF Done:  E(RHF) =  -880.447068458     A.U. after   12 cycles
 E2 =    -0.2159098060D+01 EUMP2 =    -0.88260616651750D+03
 SCF Done:  E(RHF) =  -880.447236888     A.U. after   12 cycles
 E2 =    -0.2159244900D+01 EUMP2 =    -0.88260648178756D+03
 SCF Done:  E(RHF) =  -880.447106965     A.U. after   11 cycles
 E2 =    -0.2159444321D+01 EUMP2 =    -0.88260655128663D+03
 SCF Done:  E(RHF) =  -880.447218548     A.U. after   10 cycles
 E2 =    -0.2159378776D+01 EUMP2 =    -0.88260659732315D+03
 SCF Done:  E(RHF) =  -880.447240443     A.U. after   10 cycles
 E2 =    -0.2159364168D+01 EUMP2 =    -0.88260660461141D+03
 SCF Done:  E(RHF) =  -880.447263186     A.U. after    8 cycles
 E2 =    -0.2159342438D+01 EUMP2 =    -0.88260660562376D+03
 SCF Done:  E(RHF) =  -880.447278635     A.U. after    8 cycles
 E2 =    -0.2159327793D+01 EUMP2 =    -0.88260660642800D+03
 SCF Done:  E(RHF) =  -880.447286411     A.U. after    8 cycles
 E2 =    -0.2159320293D+01 EUMP2 =    -0.88260660670353D+03
 SCF Done:  E(RHF) =  -880.447281629     A.U. after    8 cycles
 E2 =    -0.2159325438D+01 EUMP2 =    -0.88260660706794D+03
 SCF Done:  E(RHF) =  -880.447277826     A.U. after    8 cycles
 E2 =    -0.2159329457D+01 EUMP2 =    -0.88260660728220D+03
 Optimization completed.
    -- Stationary point found.
 Normal termination of Gaussian 16 at Tue Feb  8 15:23:24 2022.

 ----------------------------------------------------------------------
 #N Geom=AllCheck Guess=TCheck SCRF=Check GenChk RMP2(FC)/Aug-CC-pVDZ F
 req
 ----------------------------------------------------------------------

 Structure from the checkpoint file:  "/gscratch/scrubbed/gds001/Gau-15914.chk"
 ----------
 H CF3 Open
 ----------
 Charge =  0 Multiplicity = 1

                         Standard orientation:
 ---------------------------------------------------------------------
 Center     Atomic      Atomic             Coordinates (Angstroms)
 Number     Number       Type             X           Y           Z
 ---------------------------------------------------------------------
      1          8           0       -1.544123    2.232462   -0.067793
      2          6           0       -0.477946    1.515085   -0.686730
      3          1           0       -1.816760    2.929266   -0.680299
      4          6           0       -0.078718    0.340692    0.238741
      5          1           0        0.402650    2.165602   -0.821227
      6          1           0       -0.768008    1.110012   -1.669812
      7          7           0       -0.272358    0.673758    1.637773
      8          6           0        1.398430    0.013958   -0.076268
      9          6           0       -0.968639   -0.885695   -0.050125
     10          1           0       -0.079944    1.657741    1.811167
     11          1           0        0.314669    0.099107    2.240773
     12          9           0       -0.770325   -1.869678    0.858741
     13          9           0       -0.719778   -1.412107   -1.279643
     14          9           0       -2.272496   -0.549287   -0.014226
     15          9           0        1.816783   -1.108479    0.555027
     16          9           0        2.194369    1.030270    0.352877
     17          9           0        1.636796   -0.139826   -1.401264
 ---------------------------------------------------------------------

 SCF Done:  E(RHF) =  -880.447277826     A.U. after    1 cycles
 E2 =    -0.2159329454D+01 EUMP2 =    -0.88260660727984D+03
 E2 =    -0.2159329454D+01 EUMP2 =    -0.88260660727984D+03

 The electronic state is 1-A.
 Alpha  occ. eigenvalues --  -26.36932 -26.36927 -26.36898 -26.35869 -26.35577
 Alpha  occ. eigenvalues --  -26.35371 -20.60078 -15.58993 -11.53989 -11.52951
 Alpha  occ. eigenvalues --  -11.34869 -11.33215  -1.74531  -1.73194  -1.65407
 Alpha  occ. eigenvalues --   -1.65215  -1.64073  -1.63938  -1.39644  -1.24822
 Alpha  occ. eigenvalues --   -1.08345  -0.99098  -0.97405  -0.89305  -0.84742
 Alpha  occ. eigenvalues --   -0.83708  -0.83221  -0.82393  -0.81127  -0.76859
 Alpha  occ. eigenvalues --   -0.73586  -0.72452  -0.72185  -0.70931  -0.70795
 Alpha  occ. eigenvalues --   -0.68775  -0.68123  -0.67562  -0.67135  -0.66683
 Alpha  occ. eigenvalues --   -0.65847  -0.65091  -0.64720  -0.62767  -0.58663
 Alpha  occ. eigenvalues --   -0.57778  -0.53237  -0.48176  -0.44058
 Alpha virt. eigenvalues --    0.02706   0.04186   0.05334   0.05498   0.07198
 Alpha virt. eigenvalues --    0.08395   0.08676   0.10901   0.11429   0.12582
 Alpha virt. eigenvalues --    0.13532   0.13811   0.14324   0.15260   0.15827

 Mulliken charges:
               1
     1  O   -0.729141
     2  C    1.195189
     3  H    0.152854
     4  C   -0.396160
     5  H   -0.055799
     6  H   -0.038555
     7  N   -0.617197
     8  C    2.401804
     9  C    2.227593
    10  H    0.045676
    11  H   -0.000960
    12  F   -0.698639
    13  F   -0.700432
    14  F   -0.689427
    15  F   -0.720275
    16  F   -0.694183
    17  F   -0.682349
 Sum of Mulliken charges =  -0.00000

 Dipole moment (field-independent basis, Debye):
    X=              0.6258    Y=              3.3404    Z=             -0.7184  Tot=              3.4736
 Quadrupole moment (field-independent basis, Debye-Ang):
   XX=            -73.0341   YY=            -61.3522   ZZ=            -63.4549
   XY=             -2.0366   XZ=              5.2813   YZ=             -3.9687

  Exact polarizability:  67.263  -2.728  68.727  -0.107  -0.615  66.728
 Approx polarizability:  53.853  -1.469  56.004  -0.119  -0.496  57.345

                      1                      2                      3
                      A                      A                      A
 Frequencies --     48.2086                78.7656               106.2754
 Red. masses --     15.5756                 6.1410                 6.0684
 Frc consts  --      0.0213                 0.0224                 0.0404
 IR Inten    --      0.4159                 1.1018                 0.7341

                      4                      5                      6
                      A                      A                      A
 Frequencies --    169.8742               196.2074               205.1428
 Red. masses --     10.8284                 1.6776                 1.9731
 Frc consts  --      0.1841                 0.0381                 0.0489
 IR Inten    --      3.0948                26.8205                53.4192

                      7                      8                      9
                      A                      A                      A
 Frequencies --    221.5780               253.2680               280.8306
 Red. masses --      1.9095                 2.3732                 3.9407
 Frc consts  --      0.0552                 0.0897                 0.1831
 IR Inten    --     48.8417                15.9033                 4.2863

                     10                     11                     12
                      A                      A                      A
 Frequencies --    299.9755               324.8015               345.3048
 Red. masses --      7.1610                10.7068                 5.5404
 Frc consts  --      0.3797                 0.6655                 0.3892
 IR Inten    --      2.7386                 1.5654                 4.7699

                     13                     14                     15
                      A                      A                      A
 Frequencies --    353.3048               370.0891               454.1505
 Red. masses --      5.0218                 9.2542                 8.6529
 Frc consts  --      0.3693                 0.7468                 1.0515
 IR Inten    --      0.5849                 1.1450                 9.2861

                     16                     17                     18
                      A                      A                      A
 Frequencies --    517.2771               528.6468               551.6052
 Red. masses --     16.1424                11.3028                15.9878
 Frc consts  --      2.5449                 1.8611                 2.8661
 IR Inten    --      3.9498                 8.1373                 0.4650

                     19                     20                     21
                      A                      A                      A
 Frequencies --    598.2808               651.5747               685.0154
 Red. masses --      8.0028                 5.7101                 4.9814
 Frc consts  --      1.6877                 1.4283                 1.3772
 IR Inten    --      4.7185                31.3497                14.1522

                     22                     23                     24
                      A                      A                      A
 Frequencies --    745.9061               770.5761               923.3265
 Red. masses --      6.7417                 1.9440                 2.8581
 Frc consts  --      2.2100                 0.6801                 1.4356
 IR Inten    --     15.4388               111.2713               126.6232

                     25                     26                     27
                      A                      A                      A
 Frequencies --    988.1253              1051.4748              1091.1607
 Red. masses --      3.0231                 2.3304                 5.4939
 Frc consts  --      1.7391                 1.5180                 3.8540
 IR Inten    --     35.1614                99.6154                44.9694

                     28                     29                     30
                      A                      A                      A
 Frequencies --   1132.7549              1160.1869              1174.8591
 Red. masses --     11.7766                 6.7974                 2.6362
 Frc consts  --      8.9031                 5.3908                 2.1439
 IR Inten    --     55.3091                48.8712               137.1893

                     31                     32                     33
                      A                      A                      A
 Frequencies --   1202.8510              1218.8045              1248.3794
 Red. masses --      5.8723                 9.8545                 1.7150
 Frc consts  --      5.0059                 8.6248                 1.5747
 IR Inten    --    325.8387               242.4184                31.1500

                     34                     35                     36
                      A                      A                      A
 Frequencies --   1273.4308              1311.2772              1333.2720
 Red. masses --      1.5419                 2.4333                 3.4750
 Frc consts  --      1.4732                 2.4651                 3.6395
 IR Inten    --     94.1590                10.3736               171.1352

                     37                     38                     39
                      A                      A                      A
 Frequencies --   1400.1971              1461.5486              1514.9116
 Red. masses --      2.5766                 1.4243                 1.0787
 Frc consts  --      2.9763                 1.7926                 1.4586
 IR Inten    --     45.0826                 5.1923                 4.4049

                     40                     41                     42
                      A                      A                      A
 Frequencies --   1635.7848              3068.3119              3129.2826
 Red. masses --      1.1085                 1.0576                 1.1080
 Frc consts  --      1.7476                 5.8662                 6.3924
 IR Inten    --     48.4729                22.6730                10.9443

                     43                     44                     45
                      A                      A                      A
 Frequencies --   3529.8756              3644.6669              3826.3880
 Red. masses --      1.0493                 1.0956                 1.0668
 Frc consts  --      7.7033                 8.5746                 9.2030
 IR Inten    --     10.2432                22.6899                58.4452

 - Thermochemistry -
 -------------------
 Temperature   298.150 Kelvin.  Pressure   1.00000 Atm.
 Atom     1 has atomic number  8 and mass  15.99491

 Molecular mass:   197.02753 amu.
 Principal axes and moments of inertia in atomic units:
                           1         2         3
     Eigenvalues --  1575.643461974.501462500.58857
           X            0.99645  -0.08334   0.01190
           Y            0.08354   0.99636  -0.01716
           Z           -0.01042   0.01809   0.99978
 This molecule is an asymmetric top.
 Rotational symmetry number  1.
 Warning -- assumption of classical behavior for rotation
           may cause significant error
 Rotational temperatures (Kelvin)      0.05497     0.04387     0.03464
 Rotational constants (GHZ):           1.14540     0.91402     0.72173
 Zero-point vibrational energy     281586.2 (Joules/Mol)
                                   67.30071 (Kcal/Mol)
 Warning -- explicit consideration of  19 degrees of freedom as
           vibrations may cause significant error
 Vibrational temperatures:     69.36   113.33   152.91   244.41   282.30
          (Kelvin)            295.15   318.80   364.40   404.05   431.60
                              467.32   496.82   508.33   532.48   653.42
                              744.25   760.60   793.64   860.79   937.47
                              985.58  1073.19  1108.69  1328.46  1421.69
                             1512.84  1569.94  1629.78  1669.25  1690.36
                             1730.63  1753.59  1796.14  1832.18  1886.64
                             1918.28  2014.57  2102.84  2179.62  2353.53
                             4414.62  4502.34  5078.70  5243.86  5505.32

 Zero-point correction=                           0.107251 (Hartree/Particle)
 Thermal correction to Energy=                    0.119242
 Thermal correction to Enthalpy=                  0.120186
 Thermal correction to Gibbs Free Energy=         0.069234
 Sum of electronic and zero-point Energies=           -882.499357
 Sum of electronic and thermal Energies=              -882.487366
 Sum of electronic and thermal Enthalpies=            -882.486421
 Sum of electronic and thermal Free Energies=         -882.537373

                     E (Thermal)             CV                S
                      KCal/Mol        Cal/Mol-Kelvin    Cal/Mol-Kelvin
 Total                   74.825             43.310            107.237
 Electronic               0.000              0.000              0.000
 Translational            0.889              2.981             41.740
 Rotational               0.889              2.981             30.432
 Vibrational             73.048             37.349             35.065
 Vibration     1          0.595              1.978              4.890
 Vibration     2          0.600              1.963              3.921
 Vibration     3          0.605              1.944              3.336
 Vibration     4          0.625              1.880              2.437
 Vibration     5          0.636              1.845              2.168
 Vibration     6          0.640              1.833              2.086
 Vibration     7          0.648              1.808              1.946
 Vibration     8          0.664              1.757              1.708
 Vibration     9          0.681              1.709              1.529
 Vibration    10          0.693              1.674              1.417
 Vibration    11          0.709              1.626              1.286
 Vibration    12          0.724              1.585              1.188
 Vibration    13          0.730              1.568              1.151
 Vibration    14          0.742              1.534              1.079
 Vibration    15          0.813              1.352              0.783
 Vibration    16          0.872              1.212              0.616
 Vibration    17          0.884              1.187              0.590
 Vibration    18          0.907              1.136              0.541
 Vibration    19          0.956              1.035              0.453

 Optimization completed.
    -- Stationary point found.
 Normal termination of Gaussian 16 at Tue Feb  8 16:32:51 2022.
