 Gaussian 16, Revision A.03,
 Gaussian 16:  ES64L-G16RevA.03 25-Dec-2016

 --------------------------
 # MP2/aug-cc-pVDZ opt freq
 --------------------------

 ----------------
 H CF3 Ref Closed
 ----------------
 Symbolic Z-matrix:
 Charge =  0 Multiplicity = 1

 SCF Done:  E(RHF) =  -825.392093290     A.U. after   12 cycles
 E2 =    -0.1988958178D+01 EUMP2 =    -0.82738105146822D+03
 SCF Done:  E(RHF) =  -825.413352234     A.U. after   11 cycles
 E2 =    -0.1975872804D+01 EUMP2 =    -0.82738922503821D+03
 SCF Done:  E(RHF) =  -825.414586738     A.U. after   11 cycles
 E2 =    -0.1975499757D+01 EUMP2 =    -0.82739008649508D+03
 SCF Done:  E(RHF) =  -825.414926693     A.U. after   11 cycles
 E2 =    -0.1975328295D+01 EUMP2 =    -0.82739025498773D+03
 SCF Done:  E(RHF) =  -825.414526515     A.U. after   11 cycles
 E2 =    -0.1975871697D+01 EUMP2 =    -0.82739039821156D+03
 SCF Done:  E(RHF) =  -825.414604662     A.U. after   10 cycles
 E2 =    -0.1975901130D+01 EUMP2 =    -0.82739050579209D+03
 SCF Done:  E(RHF) =  -825.414770203     A.U. after   12 cycles
 E2 =    -0.1975884494D+01 EUMP2 =    -0.82739065469708D+03
 SCF Done:  E(RHF) =  -825.415238426     A.U. after   11 cycles
 E2 =    -0.1975516838D+01 EUMP2 =    -0.82739075526349D+03
 SCF Done:  E(RHF) =  -825.411443398     A.U. after   12 cycles
 E2 =    -0.1977657648D+01 EUMP2 =    -0.82738910104591D+03
 SCF Done:  E(RHF) =  -825.414877033     A.U. after    9 cycles
 E2 =    -0.1976027956D+01 EUMP2 =    -0.82739090498898D+03
 SCF Done:  E(RHF) =  -825.414904627     A.U. after   10 cycles
 E2 =    -0.1976148042D+01 EUMP2 =    -0.82739105266878D+03
 SCF Done:  E(RHF) =  -825.415088569     A.U. after   12 cycles
 E2 =    -0.1976123247D+01 EUMP2 =    -0.82739121181604D+03
 SCF Done:  E(RHF) =  -825.415281454     A.U. after   10 cycles
 E2 =    -0.1975970416D+01 EUMP2 =    -0.82739125187008D+03
 SCF Done:  E(RHF) =  -825.415502043     A.U. after    9 cycles
 E2 =    -0.1975773835D+01 EUMP2 =    -0.82739127587789D+03
 SCF Done:  E(RHF) =  -825.415588679     A.U. after    9 cycles
 E2 =    -0.1975697707D+01 EUMP2 =    -0.82739128638594D+03
 SCF Done:  E(RHF) =  -825.415523728     A.U. after    9 cycles
 E2 =    -0.1975771852D+01 EUMP2 =    -0.82739129558079D+03
 SCF Done:  E(RHF) =  -825.415510867     A.U. after    8 cycles
 E2 =    -0.1975786248D+01 EUMP2 =    -0.82739129711471D+03
 SCF Done:  E(RHF) =  -825.415484823     A.U. after    8 cycles
 E2 =    -0.1975812888D+01 EUMP2 =    -0.82739129771188D+03
 SCF Done:  E(RHF) =  -825.415484367     A.U. after    7 cycles
 E2 =    -0.1975813407D+01 EUMP2 =    -0.82739129777319D+03
 Optimization completed.
    -- Stationary point found.
 Normal termination of Gaussian 16 at Tue Feb  8 14:37:37 2022.

 ----------------------------------------------------------------------
 #N Geom=AllCheck Guess=TCheck SCRF=Check GenChk RMP2(FC)/Aug-CC-pVDZ F
 req
 ----------------------------------------------------------------------

 Structure from the checkpoint file:  "/gscratch/scrubbed/gds001/Gau-32074.chk"
 ----------------
 H CF3 Ref Closed
 ----------------
 Charge =  0 Multiplicity = 1

                         Standard orientation:
 ---------------------------------------------------------------------
 Center     Atomic      Atomic             Coordinates (Angstroms)
 Number     Number       Type             X           Y           Z
 ---------------------------------------------------------------------
      1          8           0        1.488787    2.375503   -0.258465
      2          6           0        0.461302    1.649000    0.411166
      3          1           0        1.079924    2.894956   -0.964271
      4          6           0        0.067647    0.360061   -0.352516
      5          1           0       -0.437040    2.268317    0.559443
      6          1           0        0.857351    1.385578    1.401170
      7          1           0        0.138980    0.540193   -1.436397
      8          6           0       -1.386049    0.008063   -0.061506
      9          6           0        1.016377   -0.790298   -0.033356
     10          9           0        0.855199   -1.837048   -0.878220
     11          9           0        0.837506   -1.253174    1.231003
     12          9           0        2.303701   -0.385599   -0.135612
     13          9           0       -1.759447   -1.189386   -0.562408
     14          9           0       -2.198844    0.949367   -0.620905
     15          9           0       -1.649800   -0.001274    1.268925
 ---------------------------------------------------------------------

 SCF Done:  E(RHF) =  -825.415484367     A.U. after    1 cycles
 E2 =    -0.1975813428D+01 EUMP2 =    -0.82739129779407D+03
 E2 =    -0.1975813428D+01 EUMP2 =    -0.82739129779407D+03

 The electronic state is 1-A.
 Alpha  occ. eigenvalues --  -26.37230 -26.37132 -26.37064 -26.36536 -26.36381
 Alpha  occ. eigenvalues --  -26.36305 -20.60347 -11.54779 -11.54117 -11.33458
 Alpha  occ. eigenvalues --  -11.32033  -1.74788  -1.73916  -1.65626  -1.65461
 Alpha  occ. eigenvalues --   -1.64810  -1.64707  -1.39667  -1.15446  -0.99638
 Alpha  occ. eigenvalues --   -0.97498  -0.90889  -0.85043  -0.84746  -0.83614
 Alpha  occ. eigenvalues --   -0.83101  -0.81722  -0.76856  -0.73774  -0.72751
 Alpha  occ. eigenvalues --   -0.72453  -0.71738  -0.71117  -0.68469  -0.68394
 Alpha  occ. eigenvalues --   -0.67175  -0.66845  -0.66623  -0.65854  -0.64874
 Alpha  occ. eigenvalues --   -0.62644  -0.58945  -0.58319  -0.52985  -0.48752
 Alpha virt. eigenvalues --    0.02781   0.04482   0.05408   0.05830   0.08652
 Alpha virt. eigenvalues --    0.08780   0.10505   0.10766   0.11307   0.13008
 Alpha virt. eigenvalues --    0.14182   0.14385   0.15001   0.15396   0.15875

 Mulliken charges:
               1
     1  O   -0.672115
     2  C    0.967676
     3  H    0.126018
     4  C   -0.464350
     5  H   -0.119957
     6  H   -0.139122
     7  H   -0.046458
     8  C    2.189420
     9  C    2.202852
    10  F   -0.670083
    11  F   -0.677834
    12  F   -0.680254
    13  F   -0.678110
    14  F   -0.679902
    15  F   -0.657782
 Sum of Mulliken charges =  -0.00000

 Dipole moment (field-independent basis, Debye):
    X=             -0.7546    Y=              2.5095    Z=             -1.1635  Tot=              2.8672
 Quadrupole moment (field-independent basis, Debye-Ang):
   XX=            -69.4060   YY=            -59.0229   ZZ=            -58.1079
   XY=             -2.0800   XZ=             -0.2265   YZ=             -2.5730

  Exact polarizability:  60.256   2.011  62.275  -0.420  -0.145  55.379
 Approx polarizability:  47.521   0.690  48.596  -0.001  -0.603  49.705

                      1                      2                      3
                      A                      A                      A
 Frequencies --     38.8894                70.2362                99.7109
 Red. masses --     17.9168                 8.7514                 4.3543
 Frc consts  --      0.0160                 0.0254                 0.0255
 IR Inten    --      0.0891                 1.1240                 4.5002

                      4                      5                      6
                      A                      A                      A
 Frequencies --    162.9071               187.4018               218.2124
 Red. masses --     15.8509                 9.4840                 2.3808
 Frc consts  --      0.2478                 0.1962                 0.0668
 IR Inten    --      0.7178                 4.5237                19.8843

                      7                      8                      9
                      A                      A                      A
 Frequencies --    281.1372               295.4526               310.2862
 Red. masses --      1.4610                15.3508                 4.7340
 Frc consts  --      0.0680                 0.7895                 0.2685
 IR Inten    --     79.5733                 1.0237                 9.7247

                     10                     11                     12
                      A                      A                      A
 Frequencies --    332.1159               356.8877               453.9036
 Red. masses --     14.1669                 9.7222                 7.4066
 Frc consts  --      0.9207                 0.7296                 0.8991
 IR Inten    --      0.2674                 1.7782                16.4717

                     13                     14                     15
                      A                      A                      A
 Frequencies --    516.5472               521.4746               537.6295
 Red. masses --     12.2028                17.4933                14.0014
 Frc consts  --      1.9184                 2.8028                 2.3844
 IR Inten    --      4.4963                 2.6921                 1.0483

                     16                     17                     18
                      A                      A                      A
 Frequencies --    582.7494               654.6928               712.7060
 Red. masses --      7.4900                 6.2992                13.6631
 Frc consts  --      1.4986                 1.5908                 4.0890
 IR Inten    --      6.4084                23.0590                13.8591

                     19                     20                     21
                      A                      A                      A
 Frequencies --    822.5499               890.2880               983.7571
 Red. masses --      3.9686                 4.7142                 1.7895
 Frc consts  --      1.5820                 2.2015                 1.0204
 IR Inten    --     16.5032                30.5315                55.7824

                     22                     23                     24
                      A                      A                      A
 Frequencies --   1052.3851              1078.9773              1086.1421
 Red. masses --      5.6508                 4.1777                 2.7603
 Frc consts  --      3.6873                 2.8656                 1.9186
 IR Inten    --    100.0426               141.1486                35.3852

                     25                     26                     27
                      A                      A                      A
 Frequencies --   1144.7415              1161.8624              1208.1381
 Red. masses --      3.5782                 4.5720                 6.4349
 Frc consts  --      2.7626                 3.6364                 5.5338
 IR Inten    --    128.2929                90.3083               165.4458

                     28                     29                     30
                      A                      A                      A
 Frequencies --   1232.2900              1266.0989              1280.3019
 Red. masses --      2.4263                 2.2912                 1.9194
 Frc consts  --      2.1708                 2.1639                 1.8537
 IR Inten    --    238.6933                77.5962               153.4307

                     31                     32                     33
                      A                      A                      A
 Frequencies --   1341.6880              1388.5768              1405.9392
 Red. masses --      3.8465                 1.4326                 1.3987
 Frc consts  --      4.0796                 1.6275                 1.6290
 IR Inten    --    192.5185                74.3437                36.5834

                     34                     35                     36
                      A                      A                      A
 Frequencies --   1431.2388              1499.5032              3099.4529
 Red. masses --      1.7668                 1.0800                 1.0625
 Frc consts  --      2.1324                 1.4308                 6.0136
 IR Inten    --     81.4793                 3.4727                16.9427

                     37                     38                     39
                      A                      A                      A
 Frequencies --   3126.3392              3174.6093              3823.5098
 Red. masses --      1.0850                 1.1051                 1.0671
 Frc consts  --      6.2479                 6.5618                 9.1913
 IR Inten    --      0.1047                 5.2058                46.0164

 - Thermochemistry -
 -------------------
 Temperature   298.150 Kelvin.  Pressure   1.00000 Atm.
 Atom     1 has atomic number  8 and mass  15.99491

 Molecular mass:   182.01663 amu.
 Principal axes and moments of inertia in atomic units:
                           1         2         3
     Eigenvalues --  1375.532841800.163982478.13983
           X            0.99822   0.05961  -0.00178
           Y           -0.05961   0.99822  -0.00323
           Z            0.00158   0.00333   0.99999
 This molecule is an asymmetric top.
 Rotational symmetry number  1.
 Warning -- assumption of classical behavior for rotation
           may cause significant error
 Rotational temperatures (Kelvin)      0.06297     0.04811     0.03495
 Rotational constants (GHZ):           1.31203     1.00254     0.72826
 Zero-point vibrational energy     238244.3 (Joules/Mol)
                                   56.94175 (Kcal/Mol)
 Warning -- explicit consideration of  16 degrees of freedom as
           vibrations may cause significant error
 Vibrational temperatures:     55.95   101.05   143.46   234.39   269.63
          (Kelvin)            313.96   404.49   425.09   446.43   477.84
                              513.48   653.07   743.20   750.29   773.53
                              838.45   941.96  1025.42  1183.47  1280.93
                             1415.41  1514.15  1552.41  1562.72  1647.03
                             1671.66  1738.24  1772.99  1821.63  1842.07
                             1930.39  1997.85  2022.83  2059.23  2157.45
                             4459.42  4498.10  4567.55  5501.18

 Zero-point correction=                           0.090742 (Hartree/Particle)
 Thermal correction to Energy=                    0.101381
 Thermal correction to Enthalpy=                  0.102325
 Thermal correction to Gibbs Free Energy=         0.053499
 Sum of electronic and zero-point Energies=           -827.300555
 Sum of electronic and thermal Energies=              -827.289917
 Sum of electronic and thermal Enthalpies=            -827.288973
 Sum of electronic and thermal Free Energies=         -827.337799

                     E (Thermal)             CV                S
                      KCal/Mol        Cal/Mol-Kelvin    Cal/Mol-Kelvin
 Total                   63.618             37.496            102.764
 Electronic               0.000              0.000              0.000
 Translational            0.889              2.981             41.503
 Rotational               0.889              2.981             30.196
 Vibrational             61.840             31.534             31.064
 Vibration     1          0.594              1.981              5.315
 Vibration     2          0.598              1.968              4.147
 Vibration     3          0.604              1.949              3.460
 Vibration     4          0.623              1.888              2.516
 Vibration     5          0.632              1.857              2.253
 Vibration     6          0.646              1.813              1.974
 Vibration     7          0.681              1.709              1.527
 Vibration     8          0.690              1.682              1.443
 Vibration     9          0.699              1.654              1.361
 Vibration    10          0.714              1.611              1.250
 Vibration    11          0.732              1.561              1.136
 Vibration    12          0.812              1.352              0.784
 Vibration    13          0.872              1.213              0.618
 Vibration    14          0.876              1.202              0.607
 Vibration    15          0.893              1.167              0.570
 Vibration    16          0.940              1.069              0.480

 Optimization completed.
    -- Stationary point found.
 Normal termination of Gaussian 16 at Tue Feb  8 15:24:57 2022.
