 Gaussian 16, Revision A.03,
 Gaussian 16:  ES64L-G16RevA.03 25-Dec-2016

 --------------------------
 # MP2/aug-cc-pVDZ opt freq
 --------------------------

 --------------
 H CF3 Ref Open
 --------------
 Symbolic Z-matrix:
 Charge =  0 Multiplicity = 1

 SCF Done:  E(RHF) =  -825.411679636     A.U. after   12 cycles
 E2 =    -0.1973006549D+01 EUMP2 =    -0.82738468618447D+03
 SCF Done:  E(RHF) =  -825.413032157     A.U. after   12 cycles
 E2 =    -0.1975749925D+01 EUMP2 =    -0.82738878208190D+03
 SCF Done:  E(RHF) =  -825.415183802     A.U. after   11 cycles
 E2 =    -0.1976059095D+01 EUMP2 =    -0.82739124289730D+03
 SCF Done:  E(RHF) =  -825.416047687     A.U. after   10 cycles
 E2 =    -0.1975495393D+01 EUMP2 =    -0.82739154308010D+03
 SCF Done:  E(RHF) =  -825.416763202     A.U. after   11 cycles
 E2 =    -0.1975077725D+01 EUMP2 =    -0.82739184092690D+03
 SCF Done:  E(RHF) =  -825.416996743     A.U. after   12 cycles
 E2 =    -0.1974959061D+01 EUMP2 =    -0.82739195580414D+03
 SCF Done:  E(RHF) =  -825.417057747     A.U. after   10 cycles
 E2 =    -0.1975125761D+01 EUMP2 =    -0.82739218350859D+03
 SCF Done:  E(RHF) =  -825.416764384     A.U. after   10 cycles
 E2 =    -0.1975575473D+01 EUMP2 =    -0.82739233985728D+03
 SCF Done:  E(RHF) =  -825.416805366     A.U. after    9 cycles
 E2 =    -0.1975563961D+01 EUMP2 =    -0.82739236932728D+03
 SCF Done:  E(RHF) =  -825.416812127     A.U. after    9 cycles
 E2 =    -0.1975576159D+01 EUMP2 =    -0.82739238828611D+03
 SCF Done:  E(RHF) =  -825.416943500     A.U. after    9 cycles
 E2 =    -0.1975459681D+01 EUMP2 =    -0.82739240318044D+03
 SCF Done:  E(RHF) =  -825.416953385     A.U. after    8 cycles
 E2 =    -0.1975451031D+01 EUMP2 =    -0.82739240441669D+03
 SCF Done:  E(RHF) =  -825.416946492     A.U. after    8 cycles
 E2 =    -0.1975458319D+01 EUMP2 =    -0.82739240481105D+03
 SCF Done:  E(RHF) =  -825.416945352     A.U. after    7 cycles
 E2 =    -0.1975459495D+01 EUMP2 =    -0.82739240484719D+03
 SCF Done:  E(RHF) =  -825.416943217     A.U. after    6 cycles
 E2 =    -0.1975461685D+01 EUMP2 =    -0.82739240490181D+03
 SCF Done:  E(RHF) =  -825.416941849     A.U. after    7 cycles
 E2 =    -0.1975463072D+01 EUMP2 =    -0.82739240492117D+03
 Optimization completed.
    -- Stationary point found.
 Normal termination of Gaussian 16 at Tue Feb  8 14:21:30 2022.

 ----------------------------------------------------------------------
 #N Geom=AllCheck Guess=TCheck SCRF=Check GenChk RMP2(FC)/Aug-CC-pVDZ F
 req
 ----------------------------------------------------------------------

 Structure from the checkpoint file:  "/gscratch/scrubbed/gds001/Gau-32388.chk"
 --------------
 H CF3 Ref Open
 --------------
 Charge =  0 Multiplicity = 1

                         Standard orientation:
 ---------------------------------------------------------------------
 Center     Atomic      Atomic             Coordinates (Angstroms)
 Number     Number       Type             X           Y           Z
 ---------------------------------------------------------------------
      1          8           0        1.404958    2.333136   -0.413514
      2          6           0        0.459138    1.648086    0.411424
      3          1           0        1.750088    3.086257    0.085031
      4          6           0        0.070967    0.367336   -0.345736
      5          1           0       -0.442133    2.262157    0.568841
      6          1           0        0.883627    1.388934    1.395556
      7          1           0        0.153241    0.566192   -1.425602
      8          6           0       -1.384712    0.014964   -0.063825
      9          6           0        1.013915   -0.788688   -0.027030
     10          9           0        0.869045   -1.818969   -0.893269
     11          9           0        0.810592   -1.275079    1.225669
     12          9           0        2.304659   -0.385347   -0.094204
     13          9           0       -1.745090   -1.188151   -0.561061
     14          9           0       -2.199123    0.946906   -0.628933
     15          9           0       -1.655675    0.007438    1.266831
 ---------------------------------------------------------------------

 SCF Done:  E(RHF) =  -825.416941849     A.U. after    1 cycles
 E2 =    -0.1975463077D+01 EUMP2 =    -0.82739240492558D+03
 E2 =    -0.1975463077D+01 EUMP2 =    -0.82739240492558D+03

 The electronic state is 1-A.
 Alpha  occ. eigenvalues --  -26.36801 -26.36773 -26.36718 -26.36388 -26.36212
 Alpha  occ. eigenvalues --  -26.36198 -20.60234 -11.54397 -11.53943 -11.33407
 Alpha  occ. eigenvalues --  -11.31690  -1.74470  -1.73740  -1.65287  -1.65104
 Alpha  occ. eigenvalues --   -1.64630  -1.64565  -1.39554  -1.15274  -0.99366
 Alpha  occ. eigenvalues --   -0.97463  -0.90414  -0.84690  -0.84543  -0.83232
 Alpha  occ. eigenvalues --   -0.82915  -0.81471  -0.77182  -0.73314  -0.72241
 Alpha  occ. eigenvalues --   -0.72070  -0.71287  -0.71230  -0.68169  -0.68078
 Alpha  occ. eigenvalues --   -0.67511  -0.66792  -0.66330  -0.65856  -0.65197
 Alpha  occ. eigenvalues --   -0.61265  -0.58756  -0.57556  -0.53895  -0.48355
 Alpha virt. eigenvalues --    0.02804   0.04716   0.05316   0.05635   0.08625
 Alpha virt. eigenvalues --    0.08749   0.10714   0.11234   0.11513   0.12872
 Alpha virt. eigenvalues --    0.14115   0.14531   0.15382   0.16026   0.16281

 Mulliken charges:
               1
     1  O   -0.731828
     2  C    0.959708
     3  H    0.157594
     4  C   -0.484811
     5  H   -0.165605
     6  H   -0.063031
     7  H   -0.003797
     8  C    2.178642
     9  C    2.200292
    10  F   -0.669326
    11  F   -0.690124
    12  F   -0.665266
    13  F   -0.681914
    14  F   -0.675218
    15  F   -0.665314
 Sum of Mulliken charges =  -0.00000

 Dipole moment (field-independent basis, Debye):
    X=              0.5388    Y=              3.0060    Z=              0.7859  Tot=              3.1534
 Quadrupole moment (field-independent basis, Debye-Ang):
   XX=            -65.4271   YY=            -56.2108   ZZ=            -60.4819
   XY=              2.9436   XZ=              2.2833   YZ=              4.0906

  Exact polarizability:  60.589   2.635  62.431  -0.327   0.869  55.006
 Approx polarizability:  47.336   1.355  48.889  -0.291   0.641  49.435

                      1                      2                      3
                      A                      A                      A
 Frequencies --     39.4810                72.2411               104.5672
 Red. masses --     17.8097                 9.5636                 5.5012
 Frc consts  --      0.0164                 0.0294                 0.0354
 IR Inten    --      0.0628                 0.6986                 3.0768

                      4                      5                      6
                      A                      A                      A
 Frequencies --    164.3713               189.7126               219.1458
 Red. masses --     15.0188                 6.9698                 1.4757
 Frc consts  --      0.2391                 0.1478                 0.0418
 IR Inten    --      0.3343                 6.2077                75.4144

                      7                      8                      9
                      A                      A                      A
 Frequencies --    252.2396               295.8252               311.6009
 Red. masses --      1.9676                15.6949                 9.1774
 Frc consts  --      0.0738                 0.8092                 0.5250
 IR Inten    --     34.8728                 0.1060                 0.5052

                     10                     11                     12
                      A                      A                      A
 Frequencies --    333.1081               357.7753               452.3972
 Red. masses --     13.2092                 9.1671                 6.7758
 Frc consts  --      0.8636                 0.6914                 0.8171
 IR Inten    --      0.6607                 0.3560                14.0742

                     13                     14                     15
                      A                      A                      A
 Frequencies --    516.4762               521.9712               538.2537
 Red. masses --     11.8871                17.4147                13.9919
 Frc consts  --      1.8682                 2.7955                 2.3884
 IR Inten    --     10.0075                 3.0301                 1.1576

                     16                     17                     18
                      A                      A                      A
 Frequencies --    584.2781               657.1654               714.2624
 Red. masses --      6.9773                 6.8314                13.6861
 Frc consts  --      1.4034                 1.7382                 4.1138
 IR Inten    --      6.9550                32.2601                16.2258

                     19                     20                     21
                      A                      A                      A
 Frequencies --    827.8990               888.5761              1010.8544
 Red. masses --      4.5217                 4.6897                 1.8039
 Frc consts  --      1.8260                 2.1816                 1.0860
 IR Inten    --     21.8280                57.5909                22.3240

                     22                     23                     24
                      A                      A                      A
 Frequencies --   1057.1632              1075.8568              1092.9782
 Red. masses --      6.5662                 2.7214                 3.6479
 Frc consts  --      4.3236                 1.8559                 2.5675
 IR Inten    --     81.5850                70.9365                99.5086

                     25                     26                     27
                      A                      A                      A
 Frequencies --   1159.4009              1176.5494              1212.4839
 Red. masses --      8.3096                 3.8567                 8.0177
 Frc consts  --      6.5811                 3.1454                 6.9446
 IR Inten    --     12.7504               265.9767               234.9313

                     28                     29                     30
                      A                      A                      A
 Frequencies --   1251.8258              1257.8688              1280.5159
 Red. masses --      1.8781                 1.8830                 1.3707
 Frc consts  --      1.7340                 1.7554                 1.3242
 IR Inten    --    175.9854                88.2567                14.5995

                     31                     32                     33
                      A                      A                      A
 Frequencies --   1287.9513              1351.9464              1418.3994
 Red. masses --      1.4847                 3.9386                 2.6777
 Frc consts  --      1.4511                 4.2414                 3.1740
 IR Inten    --     60.9233               207.0252               151.7968

                     34                     35                     36
                      A                      A                      A
 Frequencies --   1456.9182              1515.7545              3073.8417
 Red. masses --      1.4431                 1.0867                 1.0576
 Frc consts  --      1.8048                 1.4710                 5.8875
 IR Inten    --     18.8087                 3.3604                24.3220

                     37                     38                     39
                      A                      A                      A
 Frequencies --   3127.3671              3135.2437              3829.0067
 Red. masses --      1.0906                 1.1023                 1.0668
 Frc consts  --      6.2846                 6.3838                 9.2155
 IR Inten    --      5.8027                 8.3057                56.6342

 - Thermochemistry -
 -------------------
 Temperature   298.150 Kelvin.  Pressure   1.00000 Atm.
 Atom     1 has atomic number  8 and mass  15.99491

 Molecular mass:   182.01663 amu.
 Principal axes and moments of inertia in atomic units:
                           1         2         3
     Eigenvalues --  1368.569061793.559362459.19343
           X            0.99683   0.07952   0.00253
           Y           -0.07954   0.99674   0.01346
           Z           -0.00145  -0.01361   0.99991
 This molecule is an asymmetric top.
 Rotational symmetry number  1.
 Warning -- assumption of classical behavior for rotation
           may cause significant error
 Rotational temperatures (Kelvin)      0.06329     0.04829     0.03522
 Rotational constants (GHZ):           1.31871     1.00623     0.73388
 Zero-point vibrational energy     238136.3 (Joules/Mol)
                                   56.91593 (Kcal/Mol)
 Warning -- explicit consideration of  16 degrees of freedom as
           vibrations may cause significant error
 Vibrational temperatures:     56.80   103.94   150.45   236.49   272.95
          (Kelvin)            315.30   362.92   425.63   448.32   479.27
                              514.76   650.90   743.09   751.00   774.43
                              840.65   945.51  1027.66  1191.16  1278.46
                             1454.39  1521.02  1547.92  1572.55  1668.12
                             1692.79  1744.49  1801.10  1809.79  1842.38
                             1853.07  1945.15  2040.76  2096.18  2180.83
                             4422.57  4499.58  4510.92  5509.09

 Zero-point correction=                           0.090701 (Hartree/Particle)
 Thermal correction to Energy=                    0.101344
 Thermal correction to Enthalpy=                  0.102288
 Thermal correction to Gibbs Free Energy=         0.053507
 Sum of electronic and zero-point Energies=           -827.301704
 Sum of electronic and thermal Energies=              -827.291061
 Sum of electronic and thermal Enthalpies=            -827.290117
 Sum of electronic and thermal Free Energies=         -827.338898

                     E (Thermal)             CV                S
                      KCal/Mol        Cal/Mol-Kelvin    Cal/Mol-Kelvin
 Total                   63.594             37.466            102.668
 Electronic               0.000              0.000              0.000
 Translational            0.889              2.981             41.503
 Rotational               0.889              2.981             30.180
 Vibrational             61.817             31.505             30.985
 Vibration     1          0.594              1.981              5.285
 Vibration     2          0.598              1.967              4.091
 Vibration     3          0.605              1.946              3.367
 Vibration     4          0.623              1.886              2.499
 Vibration     5          0.633              1.854              2.231
 Vibration     6          0.647              1.812              1.966
 Vibration     7          0.664              1.759              1.715
 Vibration     8          0.690              1.682              1.440
 Vibration     9          0.700              1.652              1.354
 Vibration    10          0.715              1.609              1.245
 Vibration    11          0.733              1.559              1.132
 Vibration    12          0.811              1.356              0.789
 Vibration    13          0.871              1.213              0.618
 Vibration    14          0.877              1.201              0.605
 Vibration    15          0.893              1.165              0.569
 Vibration    16          0.941              1.065              0.477

 Optimization completed.
    -- Stationary point found.
 Normal termination of Gaussian 16 at Tue Feb  8 15:08:26 2022.
