 Gaussian 16, Revision A.03,
 Gaussian 16:  ES64L-G16RevA.03 25-Dec-2016

 --------------------------
 # MP2/aug-cc-pVDZ opt freq
 --------------------------

 ----------
 H H Closed
 ----------
 Symbolic Z-matrix:
 Charge =  0 Multiplicity = 1

 SCF Done:  E(RHF) =  -209.140340462     A.U. after   12 cycles
 E2 =    -0.6875396192D+00 EUMP2 =    -0.20982788008086D+03
 SCF Done:  E(RHF) =  -209.141005654     A.U. after   11 cycles
 E2 =    -0.6886146317D+00 EUMP2 =    -0.20982962028533D+03
 SCF Done:  E(RHF) =  -209.141519553     A.U. after   10 cycles
 E2 =    -0.6883654209D+00 EUMP2 =    -0.20982988497373D+03
 SCF Done:  E(RHF) =  -209.141830280     A.U. after   10 cycles
 E2 =    -0.6881811858D+00 EUMP2 =    -0.20983001146548D+03
 SCF Done:  E(RHF) =  -209.141955027     A.U. after   10 cycles
 E2 =    -0.6880591245D+00 EUMP2 =    -0.20983001415125D+03
 SCF Done:  E(RHF) =  -209.141903316     A.U. after    9 cycles
 E2 =    -0.6881321802D+00 EUMP2 =    -0.20983003549647D+03
 SCF Done:  E(RHF) =  -209.141877852     A.U. after    8 cycles
 E2 =    -0.6881585948D+00 EUMP2 =    -0.20983003644708D+03
 SCF Done:  E(RHF) =  -209.141868120     A.U. after    7 cycles
 E2 =    -0.6881684390D+00 EUMP2 =    -0.20983003655925D+03
 Optimization completed.
    -- Stationary point found.
 Normal termination of Gaussian 16 at Mon Feb  7 18:23:01 2022.

 ----------------------------------------------------------------------
 #N Geom=AllCheck Guess=TCheck SCRF=Check GenChk RMP2(FC)/Aug-CC-pVDZ F
 req
 ----------------------------------------------------------------------

 Structure from the checkpoint file:  "/gscratch/scrubbed/gds001/Gau-261961.chk"
 ----------
 H H Closed
 ----------
 Charge =  0 Multiplicity = 1

                         Standard orientation:
 ---------------------------------------------------------------------
 Center     Atomic      Atomic             Coordinates (Angstroms)
 Number     Number       Type             X           Y           Z
 ---------------------------------------------------------------------
      1          8           0       -1.427168   -0.628660   -0.171587
      2          6           0       -0.778023    0.560821    0.279070
      3          1           0       -0.741452   -1.316389   -0.112440
      4          6           0        0.638031    0.650222   -0.283596
      5          1           0       -0.738985    0.587768    1.386693
      6          1           0       -1.386159    1.412367   -0.061610
      7          7           0        1.364849   -0.569065    0.121894
      8          1           0        1.114841    1.592258    0.047996
      9          1           0        0.582108    0.658779   -1.383312
     10          1           0        1.658731   -0.498132    1.097118
     11          1           0        2.214273   -0.690178   -0.427844
 ---------------------------------------------------------------------

 SCF Done:  E(RHF) =  -209.141868120     A.U. after    1 cycles
 E2 =    -0.6881684391D+00 EUMP2 =    -0.20983003655939D+03
 E2 =    -0.6881684391D+00 EUMP2 =    -0.20983003655939D+03

 The electronic state is 1-A.
 Alpha  occ. eigenvalues --  -20.55183 -15.56713 -11.27902 -11.26636  -1.34689
 Alpha  occ. eigenvalues --   -1.18692  -0.97656  -0.82738  -0.69692  -0.65127
 Alpha  occ. eigenvalues --   -0.63169  -0.61130  -0.55358  -0.52342  -0.48508
 Alpha  occ. eigenvalues --   -0.43822  -0.40857
 Alpha virt. eigenvalues --    0.03142   0.04562   0.04676   0.05599   0.07302
 Alpha virt. eigenvalues --    0.07418   0.07938   0.11871   0.12284   0.14094
 Alpha virt. eigenvalues --    0.15315   0.16607   0.16908   0.17626   0.19357

 Mulliken charges:
               1
     1  O   -0.714327
     2  C    0.892851
     3  H    0.211252
     4  C    0.565887
     5  H   -0.134773
     6  H   -0.130710
     7  N   -0.555561
     8  H   -0.056711
     9  H   -0.149164
    10  H    0.059085
    11  H    0.012172
 Sum of Mulliken charges =   0.00000

 Dipole moment (field-independent basis, Debye):
    X=              2.9513    Y=              1.2908    Z=              0.6402  Tot=              3.2842
 Quadrupole moment (field-independent basis, Debye-Ang):
   XX=            -27.2102   YY=            -25.7730   ZZ=            -24.7220
   XY=             -2.0643   XZ=             -0.5212   YZ=             -0.2289

  Exact polarizability:  45.072  -0.522  43.397   0.046   0.404  38.987
 Approx polarizability:  34.012  -0.645  35.197   0.365   0.404  33.916

                      1                      2                      3
                      A                      A                      A
 Frequencies --    180.0664               263.4242               323.8630
 Red. masses --      2.6889                 1.0854                 2.3781
 Frc consts  --      0.0514                 0.0444                 0.1470
 IR Inten    --      5.6937                11.2882                 0.6137

                      4                      5                      6
                      A                      A                      A
 Frequencies --    520.8675               547.6647               821.8191
 Red. masses --      1.5153                 1.3837                 1.3383
 Frc consts  --      0.2422                 0.2445                 0.5325
 IR Inten    --     30.1816                94.4534                74.6046

                      7                      8                      9
                      A                      A                      A
 Frequencies --    892.1746               926.9387              1006.8450
 Red. masses --      2.4974                 1.5494                 1.2957
 Frc consts  --      1.1712                 0.7843                 0.7739
 IR Inten    --     16.4488                52.7046                 7.0213

                     10                     11                     12
                      A                      A                      A
 Frequencies --   1064.0776              1118.7688              1177.8505
 Red. masses --      2.8825                 2.5212                 1.3095
 Frc consts  --      1.9230                 1.8593                 1.0704
 IR Inten    --     52.9131                33.9620                 6.7899

                     13                     14                     15
                      A                      A                      A
 Frequencies --   1251.2749              1317.2317              1358.9674
 Red. masses --      1.2848                 1.2750                 1.2250
 Frc consts  --      1.1852                 1.3034                 1.3329
 IR Inten    --     20.9368                 3.2819                 3.3500

                     16                     17                     18
                      A                      A                      A
 Frequencies --   1394.3780              1433.2735              1488.1522
 Red. masses --      1.3220                 1.3731                 1.0869
 Frc consts  --      1.5144                 1.6619                 1.4182
 IR Inten    --     16.7780                49.6749                 5.0196

                     19                     20                     21
                      A                      A                      A
 Frequencies --   1501.2249              1638.3922              3020.4313
 Red. masses --      1.0952                 1.0912                 1.0687
 Frc consts  --      1.4542                 1.7259                 5.7443
 IR Inten    --      0.7952                28.1096                53.6156

                     22                     23                     24
                      A                      A                      A
 Frequencies --   3038.5401              3130.8188              3140.9309
 Red. masses --      1.0670                 1.0957                 1.0972
 Frc consts  --      5.8043                 6.3281                 6.3774
 IR Inten    --     65.1915                23.4301                33.4873

                     25                     26                     27
                      A                      A                      A
 Frequencies --   3509.1400              3612.7713              3725.7733
 Red. masses --      1.0512                 1.0921                 1.0652
 Frc consts  --      7.6269                 8.3980                 8.7117
 IR Inten    --      0.6872                 6.2284                64.4344

 - Thermochemistry -
 -------------------
 Temperature   298.150 Kelvin.  Pressure   1.00000 Atm.
 Atom     1 has atomic number  8 and mass  15.99491

 Molecular mass:    61.05276 amu.
 Principal axes and moments of inertia in atomic units:
                           1         2         3
     Eigenvalues --   126.02685 324.75843 394.72964
           X            0.99958  -0.02738  -0.00919
           Y            0.02729   0.99959  -0.00908
           Z            0.00944   0.00883   0.99992
 This molecule is an asymmetric top.
 Rotational symmetry number  1.
 Rotational temperatures (Kelvin)      0.68727     0.26670     0.21943
 Rotational constants (GHZ):          14.32029     5.55718     4.57209
 Zero-point vibrational energy     259623.5 (Joules/Mol)
                                   62.05151 (Kcal/Mol)
 Warning -- explicit consideration of   5 degrees of freedom as
           vibrations may cause significant error
 Vibrational temperatures:    259.08   379.01   465.97   749.41   787.97
          (Kelvin)           1182.41  1283.64  1333.66  1448.63  1530.97
                             1609.66  1694.66  1800.31  1895.20  1955.25
                             2006.20  2062.16  2141.12  2159.93  2357.28
                             4345.73  4371.78  4504.55  4519.10  5048.87
                             5197.97  5360.56

 Zero-point correction=                           0.098885 (Hartree/Particle)
 Thermal correction to Energy=                    0.103912
 Thermal correction to Enthalpy=                  0.104857
 Thermal correction to Gibbs Free Energy=         0.071680
 Sum of electronic and zero-point Energies=           -209.731151
 Sum of electronic and thermal Energies=              -209.726124
 Sum of electronic and thermal Enthalpies=            -209.725180
 Sum of electronic and thermal Free Energies=         -209.758357

                     E (Thermal)             CV                S
                      KCal/Mol        Cal/Mol-Kelvin    Cal/Mol-Kelvin
 Total                   65.206             17.138             69.827
 Electronic               0.000              0.000              0.000
 Translational            0.889              2.981             38.247
 Rotational               0.889              2.981             24.294
 Vibrational             63.429             11.176              7.285
 Vibration     1          0.629              1.867              2.328
 Vibration     2          0.670              1.740              1.639
 Vibration     3          0.708              1.628              1.291
 Vibration     4          0.876              1.204              0.608
 Vibration     5          0.903              1.145              0.549

 Optimization completed.
    -- Stationary point found.
 Normal termination of Gaussian 16 at Mon Feb  7 18:24:59 2022.
