 Gaussian 16, Revision A.03,
 Gaussian 16:  ES64L-G16RevA.03 25-Dec-2016

 --------------------------
 # MP2/aug-cc-pVDZ opt freq
 --------------------------

 --------
 H H Open
 --------
 Symbolic Z-matrix:
 Charge =  0 Multiplicity = 1

 SCF Done:  E(RHF) =  -209.134513265     A.U. after   12 cycles
 E2 =    -0.6849493526D+00 EUMP2 =    -0.20981946261711D+03
 SCF Done:  E(RHF) =  -209.134936469     A.U. after   11 cycles
 E2 =    -0.6870389008D+00 EUMP2 =    -0.20982197536939D+03
 SCF Done:  E(RHF) =  -209.135407628     A.U. after   10 cycles
 E2 =    -0.6867958496D+00 EUMP2 =    -0.20982220347708D+03
 SCF Done:  E(RHF) =  -209.135529706     A.U. after   10 cycles
 E2 =    -0.6867396180D+00 EUMP2 =    -0.20982226932376D+03
 SCF Done:  E(RHF) =  -209.135585329     A.U. after   11 cycles
 E2 =    -0.6867427035D+00 EUMP2 =    -0.20982232803270D+03
 SCF Done:  E(RHF) =  -209.135567884     A.U. after   10 cycles
 E2 =    -0.6867688055D+00 EUMP2 =    -0.20982233668934D+03
 SCF Done:  E(RHF) =  -209.135580411     A.U. after    8 cycles
 E2 =    -0.6867602038D+00 EUMP2 =    -0.20982234061464D+03
 SCF Done:  E(RHF) =  -209.135584948     A.U. after    7 cycles
 E2 =    -0.6867558728D+00 EUMP2 =    -0.20982234082091D+03
 Optimization completed.
    -- Stationary point found.
 Normal termination of Gaussian 16 at Mon Feb  7 18:24:16 2022.

 ----------------------------------------------------------------------
 #N Geom=AllCheck Guess=TCheck SCRF=Check GenChk RMP2(FC)/Aug-CC-pVDZ F
 req
 ----------------------------------------------------------------------

 Structure from the checkpoint file:  "/gscratch/scrubbed/gds001/Gau-25848.chk"
 --------
 H H Open
 --------
 Charge =  0 Multiplicity = 1

                         Standard orientation:
 ---------------------------------------------------------------------
 Center     Atomic      Atomic             Coordinates (Angstroms)
 Number     Number       Type             X           Y           Z
 ---------------------------------------------------------------------
      1          8           0       -1.454363   -0.581175   -0.232599
      2          6           0       -0.719797    0.518285    0.321626
      3          1           0       -2.284045   -0.665976    0.255186
      4          6           0        0.655405    0.552408   -0.328969
      5          1           0       -0.608472    0.406582    1.417390
      6          1           0       -1.239349    1.473884    0.121590
      7          7           0        1.486915   -0.565570    0.140972
      8          1           0        1.096844    1.551493   -0.140306
      9          1           0        0.518423    0.447094   -1.416981
     10          1           0        1.792886   -0.393970    1.099882
     11          1           0        2.336573   -0.634876   -0.418717
 ---------------------------------------------------------------------

 SCF Done:  E(RHF) =  -209.135584948     A.U. after    1 cycles
 E2 =    -0.6867558656D+00 EUMP2 =    -0.20982234081373D+03
 E2 =    -0.6867558656D+00 EUMP2 =    -0.20982234081373D+03

 The electronic state is 1-A.
 Alpha  occ. eigenvalues --  -20.56157 -15.54798 -11.28298 -11.25734  -1.35185
 Alpha  occ. eigenvalues --   -1.17265  -0.97699  -0.81532  -0.69740  -0.66465
 Alpha  occ. eigenvalues --   -0.62792  -0.57211  -0.55627  -0.53039  -0.47991
 Alpha  occ. eigenvalues --   -0.44243  -0.38941
 Alpha virt. eigenvalues --    0.03422   0.04400   0.04960   0.05276   0.07193
 Alpha virt. eigenvalues --    0.07423   0.07714   0.12489   0.13364   0.14064
 Alpha virt. eigenvalues --    0.15036   0.16312   0.16930   0.18151   0.19727

 Mulliken charges:
               1
     1  O   -0.656384
     2  C    0.832421
     3  H    0.119829
     4  C    0.549050
     5  H   -0.122526
     6  H   -0.116562
     7  N   -0.403795
     8  H   -0.076485
     9  H   -0.120381
    10  H    0.015065
    11  H   -0.020232
 Sum of Mulliken charges =  -0.00000

 Dipole moment (field-independent basis, Debye):
    X=              0.3249    Y=              2.0801    Z=              1.3349  Tot=              2.4929
 Quadrupole moment (field-independent basis, Debye-Ang):
   XX=            -19.5729   YY=            -28.8416   ZZ=            -24.6007
   XY=              0.2015   XZ=             -2.3789   YZ=             -0.6142

  Exact polarizability:  46.487  -0.205  42.780  -0.279  -0.121  39.387
 Approx polarizability:  34.509   0.099  34.335  -0.303   0.311  34.424

                      1                      2                      3
                      A                      A                      A
 Frequencies --    125.6503               205.1051               227.0071
 Red. masses --      1.8617                 1.4146                 1.0705
 Frc consts  --      0.0173                 0.0351                 0.0325
 IR Inten    --     17.3586                23.6703               109.1843

                      4                      5                      6
                      A                      A                      A
 Frequencies --    328.9867               488.7301               803.3315
 Red. masses --      2.3788                 2.1708                 1.2884
 Frc consts  --      0.1517                 0.3055                 0.4899
 IR Inten    --      5.2303                12.9908                82.6477

                      7                      8                      9
                      A                      A                      A
 Frequencies --    889.3763               937.3282               998.3097
 Red. masses --      2.6667                 1.7328                 1.3177
 Frc consts  --      1.2428                 0.8970                 0.7738
 IR Inten    --     17.3613                94.6599                 6.1147

                     10                     11                     12
                      A                      A                      A
 Frequencies --   1082.2066              1132.3885              1174.8578
 Red. masses --      3.0616                 2.5585                 1.2264
 Frc consts  --      2.1126                 1.9330                 0.9974
 IR Inten    --     18.0721                29.7948                 5.4996

                     13                     14                     15
                      A                      A                      A
 Frequencies --   1255.0012              1304.3634              1333.1727
 Red. masses --      1.1513                 1.1839                 1.1794
 Frc consts  --      1.0684                 1.1867                 1.2350
 IR Inten    --     26.8776                 7.4828                14.7034

                     16                     17                     18
                      A                      A                      A
 Frequencies --   1399.6005              1452.3489              1483.1847
 Red. masses --      1.3497                 1.6357                 1.0874
 Frc consts  --      1.5577                 2.0328                 1.4093
 IR Inten    --     11.1212                 2.8990                 3.7044

                     19                     20                     21
                      A                      A                      A
 Frequencies --   1499.1140              1641.6974              3012.5612
 Red. masses --      1.0908                 1.0919                 1.0658
 Frc consts  --      1.4443                 1.7339                 5.6989
 IR Inten    --      5.5281                25.0441                34.3643

                     22                     23                     24
                      A                      A                      A
 Frequencies --   3029.4802              3079.9510              3126.5414
 Red. masses --      1.0602                 1.1063                 1.0942
 Frc consts  --      5.7327                 6.1831                 6.3018
 IR Inten    --     83.2609                51.8190                22.8698

                     25                     26                     27
                      A                      A                      A
 Frequencies --   3504.1153              3606.1799              3834.8364
 Red. masses --      1.0509                 1.0919                 1.0668
 Frc consts  --      7.6025                 8.3662                 9.2437
 IR Inten    --      0.9893                 2.5307                34.5270

 - Thermochemistry -
 -------------------
 Temperature   298.150 Kelvin.  Pressure   1.00000 Atm.
 Atom     1 has atomic number  8 and mass  15.99491

 Molecular mass:    61.05276 amu.
 Principal axes and moments of inertia in atomic units:
                           1         2         3
     Eigenvalues --   113.79116 366.88353 415.11987
           X            0.99980  -0.01102  -0.01699
           Y            0.01053   0.99954  -0.02842
           Z            0.01729   0.02823   0.99945
 This molecule is an asymmetric top.
 Rotational symmetry number  1.
 Rotational temperatures (Kelvin)      0.76117     0.23608     0.20865
 Rotational constants (GHZ):          15.86012     4.91911     4.34752
 Zero-point vibrational energy     256930.5 (Joules/Mol)
                                   61.40786 (Kcal/Mol)
 Warning -- explicit consideration of   5 degrees of freedom as
           vibrations may cause significant error
 Vibrational temperatures:    180.78   295.10   326.61   473.34   703.17
          (Kelvin)           1155.81  1279.61  1348.61  1436.34  1557.05
                             1629.25  1690.36  1805.67  1876.69  1918.14
                             2013.71  2089.61  2133.97  2156.89  2362.04
                             4334.40  4358.75  4431.36  4498.40  5041.64
                             5188.49  5517.47

 Zero-point correction=                           0.097860 (Hartree/Particle)
 Thermal correction to Energy=                    0.103414
 Thermal correction to Enthalpy=                  0.104359
 Thermal correction to Gibbs Free Energy=         0.069938
 Sum of electronic and zero-point Energies=           -209.724481
 Sum of electronic and thermal Energies=              -209.718926
 Sum of electronic and thermal Enthalpies=            -209.717982
 Sum of electronic and thermal Free Energies=         -209.752402

                     E (Thermal)             CV                S
                      KCal/Mol        Cal/Mol-Kelvin    Cal/Mol-Kelvin
 Total                   64.894             18.020             72.443
 Electronic               0.000              0.000              0.000
 Translational            0.889              2.981             38.247
 Rotational               0.889              2.981             24.364
 Vibrational             63.116             12.058              9.832
 Vibration     1          0.611              1.927              3.012
 Vibration     2          0.640              1.833              2.087
 Vibration     3          0.651              1.800              1.902
 Vibration     4          0.712              1.618              1.265
 Vibration     5          0.845              1.275              0.687

                           ! Non-Optimized Parameters !
 Normal termination of Gaussian 16 at Mon Feb  7 18:26:11 2022.
