 Gaussian 16, Revision A.03,
 Gaussian 16:  ES64L-G16RevA.03 25-Dec-2016

 --------------------------
 # MP2/aug-cc-pVDZ opt freq
 --------------------------

 --------------
 H H Ref Closed
 --------------
 Symbolic Z-matrix:
 Charge =  0 Multiplicity = 1

 SCF Done:  E(RHF) =  -154.104221907     A.U. after   12 cycles
 E2 =    -0.5078080986D+00 EUMP2 =    -0.15461203000511D+03
 SCF Done:  E(RHF) =  -154.104273940     A.U. after   10 cycles
 E2 =    -0.5090600750D+00 EUMP2 =    -0.15461333401527D+03
 SCF Done:  E(RHF) =  -154.104439665     A.U. after    9 cycles
 E2 =    -0.5089708708D+00 EUMP2 =    -0.15461341053610D+03
 SCF Done:  E(RHF) =  -154.104446740     A.U. after    8 cycles
 E2 =    -0.5089663840D+00 EUMP2 =    -0.15461341312394D+03
 Optimization completed.
    -- Stationary point found.
 Normal termination of Gaussian 16 at Mon Feb  7 18:24:57 2022.

 ----------------------------------------------------------------------
 #N Geom=AllCheck Guess=TCheck SCRF=Check GenChk RMP2(FC)/Aug-CC-pVDZ F
 req
 ----------------------------------------------------------------------

 Structure from the checkpoint file:  "/gscratch/scrubbed/gds001/Gau-8082.chk"
 --------------
 H H Ref Closed
 --------------
 Charge =  0 Multiplicity = 1

                         Standard orientation:
 ---------------------------------------------------------------------
 Center     Atomic      Atomic             Coordinates (Angstroms)
 Number     Number       Type             X           Y           Z
 ---------------------------------------------------------------------
      1          8           0       -1.246385   -0.259022   -0.108449
      2          6           0       -0.076384    0.561445    0.047471
      3          1           0       -1.251811   -0.901555    0.614505
      4          6           0        1.216704   -0.244417   -0.022244
      5          1           0       -0.127953    1.130177    0.993924
      6          1           0       -0.126710    1.283905   -0.780190
      7          1           0        1.272370   -0.969284    0.806912
      8          1           0        2.090145    0.423563    0.053311
      9          1           0        1.273118   -0.796802   -0.972233
 ---------------------------------------------------------------------

 SCF Done:  E(RHF) =  -154.104446740     A.U. after    1 cycles
 E2 =    -0.5089663841D+00 EUMP2 =    -0.15461341312403D+03
 E2 =    -0.5089663841D+00 EUMP2 =    -0.15461341312403D+03

 The electronic state is 1-A.
 Alpha  occ. eigenvalues --  -20.56588 -11.28561 -11.23104  -1.35438  -1.01132
 Alpha  occ. eigenvalues --   -0.84537  -0.68262  -0.61839  -0.60389  -0.54283
 Alpha  occ. eigenvalues --   -0.52283  -0.48193  -0.44322
 Alpha virt. eigenvalues --    0.03530   0.04733   0.05032   0.05528   0.07744
 Alpha virt. eigenvalues --    0.07889   0.12145   0.12418   0.14278   0.15416
 Alpha virt. eigenvalues --    0.16359   0.16920   0.17632   0.20095   0.23543

 Mulliken charges:
               1
     1  O   -0.689067
     2  C    0.744212
     3  H    0.141367
     4  C    0.152436
     5  H   -0.092189
     6  H   -0.156526
     7  H   -0.081333
     8  H   -0.020893
     9  H    0.001991
 Sum of Mulliken charges =   0.00000

 Dipole moment (field-independent basis, Debye):
    X=              1.4095    Y=             -0.0893    Z=              1.2310  Tot=              1.8735
 Quadrupole moment (field-independent basis, Debye-Ang):
   XX=            -22.8277   YY=            -18.7558   ZZ=            -19.2359
   XY=              0.9261   XZ=             -1.8630   YZ=             -1.5084

  Exact polarizability:  36.102   0.389  33.441  -0.163  -0.144  31.086
 Approx polarizability:  26.794   0.868  27.532   0.133  -0.677  27.005

                      1                      2                      3
                      A                      A                      A
 Frequencies --    266.7346               284.4239               417.4698
 Red. masses --      1.0528                 1.1464                 2.7098
 Frc consts  --      0.0441                 0.0546                 0.2783
 IR Inten    --     25.2315                85.9303                10.6918

                      4                      5                      6
                      A                      A                      A
 Frequencies --    800.6721               888.9856              1061.8842
 Red. masses --      1.0824                 2.2017                 1.3728
 Frc consts  --      0.4088                 1.0252                 0.9120
 IR Inten    --      2.2914                13.3866                58.4828

                      7                      8                      9
                      A                      A                      A
 Frequencies --   1092.2835              1128.9610              1274.0680
 Red. masses --      3.6861                 1.7312                 1.3037
 Frc consts  --      2.5912                 1.3000                 1.2468
 IR Inten    --     57.4655                 2.4719                 9.6501

                     10                     11                     12
                      A                      A                      A
 Frequencies --   1360.2159              1385.3599              1414.3762
 Red. masses --      1.2036                 1.2128                 1.3105
 Frc consts  --      1.3120                 1.3714                 1.5445
 IR Inten    --      1.3518                 4.5726                40.6100

                     13                     14                     15
                      A                      A                      A
 Frequencies --   1478.8207              1486.0110              1509.8785
 Red. masses --      1.0444                 1.0462                 1.0898
 Frc consts  --      1.3457                 1.3612                 1.4639
 IR Inten    --      6.2899                 1.8340                 0.5742

                     16                     17                     18
                      A                      A                      A
 Frequencies --   3055.7065              3060.7964              3138.5304
 Red. masses --      1.0630                 1.0406                 1.0979
 Frc consts  --      5.8481                 5.7439                 6.3718
 IR Inten    --     55.0747                14.5368                 2.9177

                     19                     20                     21
                      A                      A                      A
 Frequencies --   3155.5480              3170.3096              3818.8453
 Red. masses --      1.1001                 1.1031                 1.0665
 Frc consts  --      6.4540                 6.5326                 9.1642
 IR Inten    --     42.1213                28.7923                26.1044

 - Thermochemistry -
 -------------------
 Temperature   298.150 Kelvin.  Pressure   1.00000 Atm.
 Atom     1 has atomic number  8 and mass  15.99491

 Molecular mass:    46.04186 amu.
 Principal axes and moments of inertia in atomic units:
                           1         2         3
     Eigenvalues --    53.19863 198.37271 224.61221
           X            0.99976  -0.01401  -0.01692
           Y            0.01306   0.99841  -0.05479
           Z            0.01766   0.05455   0.99835
 This molecule is an asymmetric top.
 Rotational symmetry number  1.
 Rotational temperatures (Kelvin)      1.62812     0.43662     0.38562
 Rotational constants (GHZ):          33.92458     9.09773     8.03492
 Zero-point vibrational energy     210841.1 (Joules/Mol)
                                   50.39224 (Kcal/Mol)
 Warning -- explicit consideration of   3 degrees of freedom as
           vibrations may cause significant error
 Vibrational temperatures:    383.77   409.22   600.65  1151.99  1279.05
          (Kelvin)           1527.81  1571.55  1624.32  1833.10  1957.05
                             1993.22  2034.97  2127.69  2138.04  2172.38
                             4396.48  4403.80  4515.65  4540.13  4561.37
                             5494.47

 Zero-point correction=                           0.080305 (Hartree/Particle)
 Thermal correction to Energy=                    0.084597
 Thermal correction to Enthalpy=                  0.085541
 Thermal correction to Gibbs Free Energy=         0.054901
 Sum of electronic and zero-point Energies=           -154.533108
 Sum of electronic and thermal Energies=              -154.528816
 Sum of electronic and thermal Enthalpies=            -154.527872
 Sum of electronic and thermal Free Energies=         -154.558513

                     E (Thermal)             CV                S
                      KCal/Mol        Cal/Mol-Kelvin    Cal/Mol-Kelvin
 Total                   53.085             13.579             64.488
 Electronic               0.000              0.000              0.000
 Translational            0.889              2.981             37.406
 Rotational               0.889              2.981             22.388
 Vibrational             51.308              7.618              4.694
 Vibration     1          0.672              1.734              1.617
 Vibration     2          0.683              1.703              1.507
 Vibration     3          0.781              1.432              0.901

 Optimization completed.
    -- Stationary point found.
 Normal termination of Gaussian 16 at Mon Feb  7 18:25:47 2022.
