 Gaussian 16, Revision A.03,
 Gaussian 16:  ES64L-G16RevA.03 25-Dec-2016

 --------------------------
 # MP2/aug-cc-pVDZ opt freq
 --------------------------

 ------------
 H H Ref Open
 ------------
 Symbolic Z-matrix:
 Charge =  0 Multiplicity = 1

 SCF Done:  E(RHF) =  -154.105055052     A.U. after   12 cycles
 E2 =    -0.5077467174D+00 EUMP2 =    -0.15461280176922D+03
 SCF Done:  E(RHF) =  -154.104742542     A.U. after   10 cycles
 E2 =    -0.5090283268D+00 EUMP2 =    -0.15461377086889D+03
 SCF Done:  E(RHF) =  -154.104855986     A.U. after    9 cycles
 E2 =    -0.5089586689D+00 EUMP2 =    -0.15461381465465D+03
 SCF Done:  E(RHF) =  -154.104852697     A.U. after    7 cycles
 E2 =    -0.5089641322D+00 EUMP2 =    -0.15461381682928D+03
 Optimization completed.
    -- Stationary point found.
 Normal termination of Gaussian 16 at Mon Feb  7 18:25:55 2022.

 ----------------------------------------------------------------------
 #N Geom=AllCheck Guess=TCheck SCRF=Check GenChk RMP2(FC)/Aug-CC-pVDZ F
 req
 ----------------------------------------------------------------------

 Structure from the checkpoint file:  "/gscratch/scrubbed/gds001/Gau-266970.chk"
 ------------
 H H Ref Open
 ------------
 Charge =  0 Multiplicity = 1

                         Standard orientation:
 ---------------------------------------------------------------------
 Center     Atomic      Atomic             Coordinates (Angstroms)
 Number     Number       Type             X           Y           Z
 ---------------------------------------------------------------------
      1          8           0       -1.154197   -0.400027    0.000001
      2          6           0       -0.079157    0.557424    0.000000
      3          1           0       -1.990292    0.084624   -0.000007
      4          6           0        1.222180   -0.227010   -0.000000
      5          1           0       -0.139302    1.202795    0.895050
      6          1           0       -0.139303    1.202796   -0.895048
      7          1           0        1.281021   -0.866707    0.893203
      8          1           0        2.082302    0.460942   -0.000005
      9          1           0        1.281016   -0.866712   -0.893200
 ---------------------------------------------------------------------

 SCF Done:  E(RHF) =  -154.104852697     A.U. after    1 cycles
 E2 =    -0.5089641318D+00 EUMP2 =    -0.15461381682886D+03
 E2 =    -0.5089641318D+00 EUMP2 =    -0.15461381682886D+03

 The electronic state is 1-A.
 Alpha  occ. eigenvalues --  -20.56577 -11.28559 -11.22379  -1.35386  -1.01066
 Alpha  occ. eigenvalues --   -0.83195  -0.69444  -0.64095  -0.56758  -0.52932
 Alpha  occ. eigenvalues --   -0.52224  -0.48885  -0.44212
 Alpha virt. eigenvalues --    0.03525   0.04778   0.05196   0.05414   0.07528
 Alpha virt. eigenvalues --    0.08167   0.12077   0.13586   0.14137   0.14703
 Alpha virt. eigenvalues --    0.16739   0.17624   0.17721   0.20318   0.23067

 Mulliken charges:
               1
     1  O   -0.661033
     2  C    0.710426
     3  H    0.119096
     4  C    0.139703
     5  H   -0.122611
     6  H   -0.122612
     7  H   -0.023123
     8  H   -0.016723
     9  H   -0.023123
 Sum of Mulliken charges =  -0.00000

 Dipole moment (field-independent basis, Debye):
    X=             -0.0657    Y=              1.7405    Z=             -0.0000  Tot=              1.7417
 Quadrupole moment (field-independent basis, Debye-Ang):
   XX=            -17.4145   YY=            -20.8385   ZZ=            -20.2558
   XY=             -2.1238   XZ=              0.0000   YZ=             -0.0000

  Exact polarizability:  37.070  -0.181  32.994   0.000   0.000  30.657
 Approx polarizability:  27.758   0.127  27.353   0.000  -0.000  26.055

                      1                      2                      3
                      A                      A                      A
 Frequencies --    244.7767               304.1202               411.7602
 Red. masses --      1.1552                 1.0672                 2.6086
 Frc consts  --      0.0408                 0.0582                 0.2606
 IR Inten    --     31.3487                82.8772                10.7039

                      4                      5                      6
                      A                      A                      A
 Frequencies --    815.7817               902.3387              1055.0971
 Red. masses --      1.0791                 2.1850                 1.8886
 Frc consts  --      0.4231                 1.0482                 1.2387
 IR Inten    --      0.0632                17.5584                39.3097

                      7                      8                      9
                      A                      A                      A
 Frequencies --   1099.5731              1174.3637              1269.3128
 Red. masses --      2.6707                 1.5137                 1.2234
 Frc consts  --      1.9025                 1.2299                 1.1614
 IR Inten    --     42.4876                 2.4072                58.1062

                     10                     11                     12
                      A                      A                      A
 Frequencies --   1295.1713              1382.6364              1443.6032
 Red. masses --      1.1128                 1.2389                 1.4670
 Frc consts  --      1.0998                 1.3954                 1.8013
 IR Inten    --      0.0165                 0.9107                13.2219

                     13                     14                     15
                      A                      A                      A
 Frequencies --   1474.2065              1492.4837              1519.7593
 Red. masses --      1.0377                 1.0539                 1.0949
 Frc consts  --      1.3288                 1.3832                 1.4900
 IR Inten    --      5.5421                 2.2355                 1.0416

                     16                     17                     18
                      A                      A                      A
 Frequencies --   3042.5871              3073.4684              3090.9726
 Red. masses --      1.0563                 1.0360                 1.1077
 Frc consts  --      5.7613                 5.7656                 6.2351
 IR Inten    --     60.7888                13.8773                38.4496

                     19                     20                     21
                      A                      A                      A
 Frequencies --   3168.6581              3176.0224              3831.5718
 Red. masses --      1.1014                 1.1034                 1.0668
 Frc consts  --      6.5153                 6.5576                 9.2274
 IR Inten    --     22.0052                25.0389                32.0004

 - Thermochemistry -
 -------------------
 Temperature   298.150 Kelvin.  Pressure   1.00000 Atm.
 Atom     1 has atomic number  8 and mass  15.99491

 Molecular mass:    46.04186 amu.
 Principal axes and moments of inertia in atomic units:
                           1         2         3
     Eigenvalues --    52.41359 193.52220 222.91766
           X            0.99909  -0.04272   0.00000
           Y            0.04272   0.99909   0.00000
           Z           -0.00000  -0.00000   1.00000
 This molecule is an asymmetric top.
 Rotational symmetry number  1.
 Rotational temperatures (Kelvin)      1.65251     0.44757     0.38855
 Rotational constants (GHZ):          34.43270     9.32576     8.09600
 Zero-point vibrational energy     210951.1 (Joules/Mol)
                                   50.41852 (Kcal/Mol)
 Warning -- explicit consideration of   3 degrees of freedom as
           vibrations may cause significant error
 Vibrational temperatures:    352.18   437.56   592.43  1173.73  1298.26
          (Kelvin)           1518.05  1582.04  1689.65  1826.26  1863.46
                             1989.31  2077.02  2121.05  2147.35  2186.59
                             4377.60  4422.04  4447.22  4558.99  4569.59
                             5512.78

 Zero-point correction=                           0.080347 (Hartree/Particle)
 Thermal correction to Energy=                    0.084641
 Thermal correction to Enthalpy=                  0.085585
 Thermal correction to Gibbs Free Energy=         0.054951
 Sum of electronic and zero-point Energies=           -154.533470
 Sum of electronic and thermal Energies=              -154.529176
 Sum of electronic and thermal Enthalpies=            -154.528232
 Sum of electronic and thermal Free Energies=         -154.558866

                     E (Thermal)             CV                S
                      KCal/Mol        Cal/Mol-Kelvin    Cal/Mol-Kelvin
 Total                   53.113             13.536             64.475
 Electronic               0.000              0.000              0.000
 Translational            0.889              2.981             37.406
 Rotational               0.889              2.981             22.341
 Vibrational             51.335              7.574              4.728
 Vibration     1          0.660              1.771              1.768
 Vibration     2          0.695              1.666              1.394
 Vibration     3          0.776              1.445              0.920

 Optimization completed.
    -- Stationary point found.
 Normal termination of Gaussian 16 at Mon Feb  7 18:26:47 2022.
