 Gaussian 16, Revision A.03,
 Gaussian 16:  ES64L-G16RevA.03 25-Dec-2016

 --------------------------
 # MP2/aug-cc-pVDZ opt freq
 --------------------------

 -----------
 Me H Closed
 -----------
 Symbolic Z-matrix:
 Charge =  0 Multiplicity = 1

 SCF Done:  E(RHF) =  -287.224907088     A.U. after   13 cycles
 E2 =    -0.9924046249D+00 EUMP2 =    -0.28821731171298D+03
 SCF Done:  E(RHF) =  -287.225070126     A.U. after   11 cycles
 E2 =    -0.9944222078D+00 EUMP2 =    -0.28821949233390D+03
 SCF Done:  E(RHF) =  -287.225840832     A.U. after   11 cycles
 E2 =    -0.9940843425D+00 EUMP2 =    -0.28821992517444D+03
 SCF Done:  E(RHF) =  -287.226071404     A.U. after   10 cycles
 E2 =    -0.9939751318D+00 EUMP2 =    -0.28822004653590D+03
 SCF Done:  E(RHF) =  -287.226322518     A.U. after   11 cycles
 E2 =    -0.9936846024D+00 EUMP2 =    -0.28822000712051D+03
 SCF Done:  E(RHF) =  -287.226302120     A.U. after   10 cycles
 E2 =    -0.9938299514D+00 EUMP2 =    -0.28822013207164D+03
 SCF Done:  E(RHF) =  -287.226252281     A.U. after    8 cycles
 E2 =    -0.9938830947D+00 EUMP2 =    -0.28822013537571D+03
 SCF Done:  E(RHF) =  -287.226242972     A.U. after    7 cycles
 E2 =    -0.9938926534D+00 EUMP2 =    -0.28822013562526D+03
 Optimization completed.
    -- Stationary point found.
 Normal termination of Gaussian 16 at Tue Feb  8 12:57:09 2022.

 ----------------------------------------------------------------------
 #N Geom=AllCheck Guess=TCheck SCRF=Check GenChk RMP2(FC)/Aug-CC-pVDZ F
 req
 ----------------------------------------------------------------------

 Structure from the checkpoint file:  "/gscratch/scrubbed/gds001/Gau-29209.chk"
 -----------
 Me H Closed
 -----------
 Charge =  0 Multiplicity = 1

                         Standard orientation:
 ---------------------------------------------------------------------
 Center     Atomic      Atomic             Coordinates (Angstroms)
 Number     Number       Type             X           Y           Z
 ---------------------------------------------------------------------
      1          8           0       -0.349583   -0.152806    1.452412
      2          6           0       -0.433738   -0.000686    0.023982
      3          1           0        0.583855    0.037263    1.661124
      4          6           0        0.824711   -0.626380   -0.601344
      5          6           0       -0.538864    1.488317   -0.330393
      6          6           0       -1.681412   -0.755734   -0.422271
      7          7           0        2.024976   -0.028314    0.016056
      8          1           0        0.787365   -0.520720   -1.702416
      9          1           0        0.823708   -1.700934   -0.358344
     10          1           0        2.269731    0.850383   -0.439871
     11          1           0        2.830213   -0.642960   -0.093375
     12          1           0       -1.601217   -1.819121   -0.149029
     13          1           0       -1.818269   -0.673245   -1.512813
     14          1           0       -2.568813   -0.335931    0.075717
     15          1           0        0.335447    2.042257    0.047397
     16          1           0       -1.435631    1.917074    0.141994
     17          1           0       -0.608738    1.633471   -1.421912
 ---------------------------------------------------------------------

 SCF Done:  E(RHF) =  -287.226242972     A.U. after    1 cycles
 E2 =    -0.9938926523D+00 EUMP2 =    -0.28822013562418D+03
 E2 =    -0.9938926523D+00 EUMP2 =    -0.28822013562418D+03

 The electronic state is 1-A.
 Alpha  occ. eigenvalues --  -20.54563 -15.56593 -11.28398 -11.26229 -11.22102
 Alpha  occ. eigenvalues --  -11.21871  -1.34520  -1.18606  -1.04801  -0.93463
 Alpha  occ. eigenvalues --   -0.90600  -0.75671  -0.68996  -0.65232  -0.63450
 Alpha  occ. eigenvalues --   -0.61445  -0.57340  -0.55592  -0.52934  -0.51806
 Alpha  occ. eigenvalues --   -0.51001  -0.49440  -0.46121  -0.43110  -0.40326
 Alpha virt. eigenvalues --    0.03130   0.04394   0.04599   0.05250   0.06592
 Alpha virt. eigenvalues --    0.06722   0.07235   0.07329   0.07622   0.09376
 Alpha virt. eigenvalues --    0.09793   0.13122   0.13672   0.14518   0.15136

 Mulliken charges:
               1
     1  O   -0.780218
     2  C   -2.050335
     3  H    0.162709
     4  C    1.257821
     5  C    0.888404
     6  C    0.940484
     7  N   -0.508228
     8  H   -0.067507
     9  H   -0.114541
    10  H    0.080105
    11  H    0.016036
    12  H    0.007576
    13  H    0.086888
    14  H    0.041463
    15  H   -0.043337
    16  H    0.024189
    17  H    0.058489
 Sum of Mulliken charges =  -0.00000

 Dipole moment (field-independent basis, Debye):
    X=              1.8072    Y=              0.1665    Z=             -2.5399  Tot=              3.1217
 Quadrupole moment (field-independent basis, Debye-Ang):
   XX=            -35.8264   YY=            -38.5535   ZZ=            -42.6807
   XY=             -0.6967   XZ=              0.3091   YZ=              0.4055

  Exact polarizability:  71.494   0.459  65.189   1.004   0.378  63.215
 Approx polarizability:  55.623   0.252  54.328   0.618  -0.156  55.306

                      1                      2                      3
                      A                      A                      A
 Frequencies --    137.8757               217.3638               255.8400
 Red. masses --      2.2608                 1.1053                 1.3207
 Frc consts  --      0.0253                 0.0308                 0.0509
 IR Inten    --      2.2734                 0.3358                 6.0786

                      4                      5                      6
                      A                      A                      A
 Frequencies --    258.5320               287.7522               343.9448
 Red. masses --      1.8199                 1.1024                 2.2773
 Frc consts  --      0.0717                 0.0538                 0.1587
 IR Inten    --      3.2027                 6.8733                 2.0264

                      7                      8                      9
                      A                      A                      A
 Frequencies --    364.1418               408.9552               458.3339
 Red. masses --      2.6930                 2.2311                 2.8263
 Frc consts  --      0.2104                 0.2198                 0.3498
 IR Inten    --      2.9956                 1.9114                 3.9460

                     10                     11                     12
                      A                      A                      A
 Frequencies --    547.5569               582.5290               760.3141
 Red. masses --      1.6348                 1.5514                 3.1055
 Frc consts  --      0.2888                 0.3102                 1.0577
 IR Inten    --     44.3374                75.0667                 1.7785

                     13                     14                     15
                      A                      A                      A
 Frequencies --    842.2480               912.0574               927.4656
 Red. masses --      1.2692                 1.9985                 1.7280
 Frc consts  --      0.5305                 0.9795                 0.8758
 IR Inten    --     69.0313                 5.1610                39.4009

                     16                     17                     18
                      A                      A                      A
 Frequencies --    939.5971               993.4460               999.1652
 Red. masses --      1.5235                 1.5695                 1.3293
 Frc consts  --      0.7925                 0.9126                 0.7819
 IR Inten    --     24.0169                 7.9932                 0.9686

                     19                     20                     21
                      A                      A                      A
 Frequencies --   1079.2467              1115.5700              1171.0290
 Red. masses --      2.9557                 1.3293                 1.6137
 Frc consts  --      2.0284                 0.9747                 1.3038
 IR Inten    --     13.1961                10.6450                55.5696

                     22                     23                     24
                      A                      A                      A
 Frequencies --   1233.5451              1282.7751              1316.4386
 Red. masses --      2.5822                 2.0443                 1.3265
 Frc consts  --      2.3150                 1.9819                 1.3544
 IR Inten    --      9.4012                 6.7354                32.6027

                     25                     26                     27
                      A                      A                      A
 Frequencies --   1362.0315              1378.9251              1403.3264
 Red. masses --      1.2410                 1.4067                 1.2958
 Frc consts  --      1.3564                 1.5759                 1.5036
 IR Inten    --     20.4522                17.0601                12.4734

                     28                     29                     30
                      A                      A                      A
 Frequencies --   1419.7123              1466.0096              1478.6452
 Red. masses --      1.6755                 1.0619                 1.0661
 Frc consts  --      1.9898                 1.3447                 1.3733
 IR Inten    --     32.5213                 0.8555                 0.3983

                     31                     32                     33
                      A                      A                      A
 Frequencies --   1485.1484              1493.1648              1504.5078
 Red. masses --      1.0643                 1.1362                 1.0593
 Frc consts  --      1.3831                 1.4926                 1.4127
 IR Inten    --      4.5038                 3.9047                 8.8989

                     34                     35                     36
                      A                      A                      A
 Frequencies --   1640.9517              3031.1526              3050.3297
 Red. masses --      1.0892                 1.0651                 1.0362
 Frc consts  --      1.7280                 5.7656                 5.6803
 IR Inten    --     31.6533                43.2837                20.4486

                     37                     38                     39
                      A                      A                      A
 Frequencies --   3059.6173              3122.3470              3142.8659
 Red. masses --      1.0356                 1.0990                 1.1010
 Frc consts  --      5.7118                 6.3125                 6.4074
 IR Inten    --     19.0277                18.3917                22.3875

                     40                     41                     42
                      A                      A                      A
 Frequencies --   3154.8563              3157.8910              3161.9181
 Red. masses --      1.1013                 1.1015                 1.1018
 Frc consts  --      6.4584                 6.4719                 6.4899
 IR Inten    --     11.6379                25.8316                26.6474

                     43                     44                     45
                      A                      A                      A
 Frequencies --   3517.8875              3616.9298              3686.6112
 Red. masses --      1.0509                 1.0926                 1.0650
 Frc consts  --      7.6626                 8.4217                 8.5281
 IR Inten    --      0.8872                 6.6899                73.6564

 - Thermochemistry -
 -------------------
 Temperature   298.150 Kelvin.  Pressure   1.00000 Atm.
 Atom     1 has atomic number  8 and mass  15.99491

 Molecular mass:    89.08406 amu.
 Principal axes and moments of inertia in atomic units:
                           1         2         3
     Eigenvalues --   389.76722 674.99588 695.23227
           X            0.99983   0.00138   0.01828
           Y           -0.00307   0.99573   0.09231
           Z           -0.01807  -0.09235   0.99556
 This molecule is an asymmetric top.
 Rotational symmetry number  1.
 Rotational temperatures (Kelvin)      0.22222     0.12832     0.12458
 Rotational constants (GHZ):           4.63031     2.67371     2.59588
 Zero-point vibrational energy     405357.9 (Joules/Mol)
                                   96.88287 (Kcal/Mol)
 Warning -- explicit consideration of  11 degrees of freedom as
           vibrations may cause significant error
 Vibrational temperatures:    198.37   312.74   368.10   371.97   414.01
          (Kelvin)            494.86   523.92   588.40   659.44   787.81
                              838.13  1093.92  1211.81  1312.25  1334.42
                             1351.87  1429.35  1437.58  1552.80  1605.06
                             1684.85  1774.80  1845.63  1894.06  1959.66
                             1983.97  2019.07  2042.65  2109.26  2127.44
                             2136.80  2148.33  2164.65  2360.96  4361.15
                             4388.74  4402.11  4492.36  4521.88  4539.13
                             4543.50  4549.29  5061.46  5203.96  5304.21

 Zero-point correction=                           0.154393 (Hartree/Particle)
 Thermal correction to Energy=                    0.161991
 Thermal correction to Enthalpy=                  0.162935
 Thermal correction to Gibbs Free Energy=         0.123896
 Sum of electronic and zero-point Energies=           -288.065743
 Sum of electronic and thermal Energies=              -288.058145
 Sum of electronic and thermal Enthalpies=            -288.057201
 Sum of electronic and thermal Free Energies=         -288.096240

                     E (Thermal)             CV                S
                      KCal/Mol        Cal/Mol-Kelvin    Cal/Mol-Kelvin
 Total                  101.651             28.640             82.164
 Electronic               0.000              0.000              0.000
 Translational            0.889              2.981             39.373
 Rotational               0.889              2.981             26.706
 Vibrational             99.873             22.678             16.085
 Vibration     1          0.614              1.915              2.833
 Vibration     2          0.646              1.815              1.981
 Vibration     3          0.666              1.753              1.690
 Vibration     4          0.667              1.748              1.672
 Vibration     5          0.685              1.696              1.487
 Vibration     6          0.723              1.588              1.194
 Vibration     7          0.738              1.546              1.104
 Vibration     8          0.773              1.451              0.930
 Vibration     9          0.816              1.342              0.771
 Vibration    10          0.903              1.145              0.549
 Vibration    11          0.939              1.069              0.481

 Optimization completed.
    -- Stationary point found.
 Normal termination of Gaussian 16 at Tue Feb  8 13:09:34 2022.
