 Gaussian 16, Revision A.03,
 Gaussian 16:  ES64L-G16RevA.03 25-Dec-2016

 --------------------------
 # MP2/aug-cc-pVDZ opt freq
 --------------------------

 ---------
 Me H Open
 ---------
 Symbolic Z-matrix:
 Charge =  0 Multiplicity = 1

 SCF Done:  E(RHF) =  -287.216965051     A.U. after   13 cycles
 E2 =    -0.9901456940D+00 EUMP2 =    -0.28820711074458D+03
 SCF Done:  E(RHF) =  -287.217466923     A.U. after   11 cycles
 E2 =    -0.9930610386D+00 EUMP2 =    -0.28821052796113D+03
 SCF Done:  E(RHF) =  -287.218408529     A.U. after   11 cycles
 E2 =    -0.9928131122D+00 EUMP2 =    -0.28821122164135D+03
 SCF Done:  E(RHF) =  -287.218621969     A.U. after   11 cycles
 E2 =    -0.9928501124D+00 EUMP2 =    -0.28821147208166D+03
 SCF Done:  E(RHF) =  -287.218726176     A.U. after   10 cycles
 E2 =    -0.9928472817D+00 EUMP2 =    -0.28821157345791D+03
 SCF Done:  E(RHF) =  -287.218783816     A.U. after   10 cycles
 E2 =    -0.9928242149D+00 EUMP2 =    -0.28821160803053D+03
 SCF Done:  E(RHF) =  -287.218848806     A.U. after    9 cycles
 E2 =    -0.9927764919D+00 EUMP2 =    -0.28821162529823D+03
 SCF Done:  E(RHF) =  -287.218861545     A.U. after    8 cycles
 E2 =    -0.9927644663D+00 EUMP2 =    -0.28821162601131D+03
 SCF Done:  E(RHF) =  -287.218872420     A.U. after    8 cycles
 E2 =    -0.9927540638D+00 EUMP2 =    -0.28821162648407D+03
 SCF Done:  E(RHF) =  -287.218880347     A.U. after    7 cycles
 E2 =    -0.9927463182D+00 EUMP2 =    -0.28821162666531D+03
 SCF Done:  E(RHF) =  -287.218881062     A.U. after    8 cycles
 E2 =    -0.9927457617D+00 EUMP2 =    -0.28821162682417D+03
 SCF Done:  E(RHF) =  -287.218876429     A.U. after    8 cycles
 E2 =    -0.9927504512D+00 EUMP2 =    -0.28821162687989D+03
 Optimization completed.
    -- Stationary point found.
 Normal termination of Gaussian 16 at Tue Feb  8 13:00:58 2022.

 ----------------------------------------------------------------------
 #N Geom=AllCheck Guess=TCheck SCRF=Check GenChk RMP2(FC)/Aug-CC-pVDZ F
 req
 ----------------------------------------------------------------------

 Structure from the checkpoint file:  "/gscratch/scrubbed/gds001/Gau-25059.chk"
 ---------
 Me H Open
 ---------
 Charge =  0 Multiplicity = 1

                         Standard orientation:
 ---------------------------------------------------------------------
 Center     Atomic      Atomic             Coordinates (Angstroms)
 Number     Number       Type             X           Y           Z
 ---------------------------------------------------------------------
      1          8           0       -0.510641   -0.054187    1.460139
      2          6           0       -0.421838   -0.001324    0.019514
      3          1           0       -1.261612    0.496311    1.726707
      4          6           0        0.877120   -0.740760   -0.332972
      5          6           0       -0.381173    1.454248   -0.453110
      6          6           0       -1.612057   -0.747498   -0.593903
      7          7           0        2.077238    0.014794    0.057050
      8          1           0        0.843886   -0.990897   -1.411899
      9          1           0        0.867864   -1.687952    0.229522
     10          1           0        2.331191    0.684830   -0.669034
     11          1           0        2.871716   -0.617322    0.146381
     12          1           0       -1.612486   -1.798573   -0.264560
     13          1           0       -1.576682   -0.717901   -1.695268
     14          1           0       -2.558882   -0.284350   -0.269908
     15          1           0        0.433484    1.989585    0.055333
     16          1           0       -1.334223    1.959066   -0.220056
     17          1           0       -0.232112    1.509153   -1.544853
 ---------------------------------------------------------------------

 SCF Done:  E(RHF) =  -287.218876429     A.U. after    1 cycles
 E2 =    -0.9927504496D+00 EUMP2 =    -0.28821162687830D+03
 E2 =    -0.9927504496D+00 EUMP2 =    -0.28821162687830D+03

 The electronic state is 1-A.
 Alpha  occ. eigenvalues --  -20.55543 -15.54678 -11.28723 -11.25376 -11.22471
 Alpha  occ. eigenvalues --  -11.22387  -1.35017  -1.17264  -1.04841  -0.93866
 Alpha  occ. eigenvalues --   -0.90292  -0.76065  -0.67515  -0.65693  -0.62341
 Alpha  occ. eigenvalues --   -0.60153  -0.57244  -0.56765  -0.53718  -0.52174
 Alpha  occ. eigenvalues --   -0.50417  -0.50032  -0.45939  -0.42980  -0.38721
 Alpha virt. eigenvalues --    0.03383   0.04190   0.04708   0.05054   0.06576
 Alpha virt. eigenvalues --    0.06683   0.06793   0.07453   0.07745   0.09336
 Alpha virt. eigenvalues --    0.09855   0.13023   0.13970   0.14315   0.15302

 Mulliken charges:
               1
     1  O   -0.765069
     2  C   -1.726641
     3  H    0.100018
     4  C    0.902019
     5  C    0.912243
     6  C    0.870101
     7  N   -0.317508
     8  H   -0.015344
     9  H   -0.072304
    10  H    0.045420
    11  H   -0.039701
    12  H    0.040391
    13  H    0.040550
    14  H   -0.025273
    15  H    0.080934
    16  H   -0.068717
    17  H    0.038883
 Sum of Mulliken charges =  -0.00000

 Dipole moment (field-independent basis, Debye):
    X=             -0.5341    Y=              0.2298    Z=             -2.2168  Tot=              2.2918
 Quadrupole moment (field-independent basis, Debye-Ang):
   XX=            -35.1708   YY=            -38.4692   ZZ=            -41.8447
   XY=             -2.7967   XZ=             -4.0744   YZ=              0.5524

  Exact polarizability:  71.540   0.481  65.847   0.416   0.804  63.245
 Approx polarizability:  55.315  -0.656  54.725  -0.337   0.026  55.415

                      1                      2                      3
                      A                      A                      A
 Frequencies --    130.2821               172.9832               233.9191
 Red. masses --      2.5502                 1.0566                 1.0968
 Frc consts  --      0.0255                 0.0186                 0.0354
 IR Inten    --      1.5424                37.7865                97.5661

                      4                      5                      6
                      A                      A                      A
 Frequencies --    243.3483               251.6844               293.6565
 Red. masses --      1.0313                 2.3932                 1.1426
 Frc consts  --      0.0360                 0.0893                 0.0581
 IR Inten    --      0.7292                 6.3052                 1.3049

                      7                      8                      9
                      A                      A                      A
 Frequencies --    340.7936               369.1021               408.7593
 Red. masses --      2.1690                 3.1903                 2.2049
 Frc consts  --      0.1484                 0.2561                 0.2171
 IR Inten    --      3.5194                 2.4365                 0.0725

                     10                     11                     12
                      A                      A                      A
 Frequencies --    451.3265               549.4995               753.0473
 Red. masses --      2.7561                 3.0510                 2.9927
 Frc consts  --      0.3308                 0.5428                 0.9999
 IR Inten    --      7.2143                12.8809                 6.5184

                     13                     14                     15
                      A                      A                      A
 Frequencies --    823.1573               912.0639               920.1418
 Red. masses --      1.3008                 2.1280                 1.7627
 Frc consts  --      0.5193                 1.0430                 0.8793
 IR Inten    --     75.6273                62.2272                16.6652

                     16                     17                     18
                      A                      A                      A
 Frequencies --    927.3675               985.1409              1000.2614
 Red. masses --      1.5241                 1.5770                 1.2867
 Frc consts  --      0.7723                 0.9017                 0.7585
 IR Inten    --     13.6733                 1.5250                 0.6282

                     19                     20                     21
                      A                      A                      A
 Frequencies --   1100.8245              1129.3004              1161.7994
 Red. masses --      2.6530                 1.3661                 1.4407
 Frc consts  --      1.8942                 1.0265                 1.1457
 IR Inten    --     20.9292                13.0790                37.6641

                     22                     23                     24
                      A                      A                      A
 Frequencies --   1212.2377              1267.9133              1339.2593
 Red. masses --      2.7879                 2.0932                 1.3162
 Frc consts  --      2.4138                 1.9826                 1.3909
 IR Inten    --     33.0853                 8.1349                 5.9635

                     25                     26                     27
                      A                      A                      A
 Frequencies --   1359.3789              1381.1363              1393.5277
 Red. masses --      1.2739                 1.4760                 1.4023
 Frc consts  --      1.3870                 1.6589                 1.6044
 IR Inten    --     12.7253                20.5591                20.5432

                     28                     29                     30
                      A                      A                      A
 Frequencies --   1418.3339              1470.1449              1477.2854
 Red. masses --      1.5187                 1.0681                 1.0569
 Frc consts  --      1.8000                 1.3602                 1.3590
 IR Inten    --      3.8873                 1.3019                 0.8991

                     31                     32                     33
                      A                      A                      A
 Frequencies --   1479.1873              1491.8661              1509.4687
 Red. masses --      1.0657                 1.0814                 1.0973
 Frc consts  --      1.3738                 1.4180                 1.4730
 IR Inten    --      1.3293                 1.5660                16.0734

                     34                     35                     36
                      A                      A                      A
 Frequencies --   1646.4445              3015.8980              3046.6542
 Red. masses --      1.0899                 1.0676                 1.0364
 Frc consts  --      1.7408                 5.7213                 5.6677
 IR Inten    --     25.7942                51.8100                16.2365

                     37                     38                     39
                      A                      A                      A
 Frequencies --   3050.5892              3121.3865              3130.0517
 Red. masses --      1.0361                 1.0955                 1.1008
 Frc consts  --      5.6808                 6.2888                 6.3543
 IR Inten    --     24.4121                13.9173                14.3708

                     40                     41                     42
                      A                      A                      A
 Frequencies --   3141.5906              3153.7881              3169.2857
 Red. masses --      1.1009                 1.1021                 1.1008
 Frc consts  --      6.4016                 6.4584                 6.5143
 IR Inten    --     40.9442                23.2231                10.6052

                     43                     44                     45
                      A                      A                      A
 Frequencies --   3512.3819              3611.9973              3796.6452
 Red. masses --      1.0509                 1.0923                 1.0664
 Frc consts  --      7.6387                 8.3962                 9.0564
 IR Inten    --      0.8496                 3.2397                17.7686

 - Thermochemistry -
 -------------------
 Temperature   298.150 Kelvin.  Pressure   1.00000 Atm.
 Atom     1 has atomic number  8 and mass  15.99491

 Molecular mass:    89.08406 amu.
 Principal axes and moments of inertia in atomic units:
                           1         2         3
     Eigenvalues --   395.45241 687.48959 704.33606
           X            0.99998  -0.00569   0.00190
           Y            0.00551   0.99619   0.08702
           Z           -0.00239  -0.08700   0.99621
 This molecule is an asymmetric top.
 Rotational symmetry number  1.
 Rotational temperatures (Kelvin)      0.21902     0.12599     0.12297
 Rotational constants (GHZ):           4.56374     2.62512     2.56233
 Zero-point vibrational energy     402871.8 (Joules/Mol)
                                   96.28868 (Kcal/Mol)
 Warning -- explicit consideration of  11 degrees of freedom as
           vibrations may cause significant error
 Vibrational temperatures:    187.45   248.88   336.56   350.12   362.12
          (Kelvin)            422.51   490.33   531.06   588.11   649.36
                              790.61  1083.47  1184.34  1312.26  1323.88
                             1334.27  1417.40  1439.15  1583.84  1624.81
                             1671.57  1744.14  1824.24  1926.90  1955.84
                             1987.15  2004.98  2040.67  2115.21  2125.48
                             2128.22  2146.46  2171.79  2368.87  4339.20
                             4383.46  4389.12  4490.98  4503.45  4520.05
                             4537.60  4559.90  5053.53  5196.86  5462.53

 Zero-point correction=                           0.153446 (Hartree/Particle)
 Thermal correction to Energy=                    0.161501
 Thermal correction to Enthalpy=                  0.162445
 Thermal correction to Gibbs Free Energy=         0.122415
 Sum of electronic and zero-point Energies=           -288.058181
 Sum of electronic and thermal Energies=              -288.050126
 Sum of electronic and thermal Enthalpies=            -288.049182
 Sum of electronic and thermal Free Energies=         -288.089212

                     E (Thermal)             CV                S
                      KCal/Mol        Cal/Mol-Kelvin    Cal/Mol-Kelvin
 Total                  101.343             29.524             84.250
 Electronic               0.000              0.000              0.000
 Translational            0.889              2.981             39.373
 Rotational               0.889              2.981             26.751
 Vibrational             99.566             23.562             18.126
 Vibration     1          0.612              1.923              2.942
 Vibration     2          0.626              1.876              2.403
 Vibration     3          0.654              1.789              1.849
 Vibration     4          0.659              1.774              1.778
 Vibration     5          0.664              1.760              1.719
 Vibration     6          0.688              1.686              1.453
 Vibration     7          0.720              1.594              1.208
 Vibration     8          0.741              1.536              1.084
 Vibration     9          0.773              1.451              0.931
 Vibration    10          0.810              1.358              0.792
 Vibration    11          0.905              1.141              0.545

 Optimization completed.
    -- Stationary point found.
 Normal termination of Gaussian 16 at Tue Feb  8 13:13:21 2022.
