 Gaussian 16, Revision A.03,
 Gaussian 16:  ES64L-G16RevA.03 25-Dec-2016

 --------------------------
 # MP2/aug-cc-pVDZ opt freq
 --------------------------

 -----------
 H Me Closed
 -----------
 Symbolic Z-matrix:
 Charge =  0 Multiplicity = 1

 SCF Done:  E(RHF) =  -287.221184035     A.U. after   13 cycles
 E2 =    -0.9937305241D+00 EUMP2 =    -0.28821491455936D+03
 SCF Done:  E(RHF) =  -287.221866273     A.U. after   11 cycles
 E2 =    -0.9953253745D+00 EUMP2 =    -0.28821719164790D+03
 SCF Done:  E(RHF) =  -287.222509200     A.U. after   10 cycles
 E2 =    -0.9950819024D+00 EUMP2 =    -0.28821759110260D+03
 SCF Done:  E(RHF) =  -287.222801134     A.U. after   10 cycles
 E2 =    -0.9948284659D+00 EUMP2 =    -0.28821762959993D+03
 SCF Done:  E(RHF) =  -287.222941748     A.U. after   10 cycles
 E2 =    -0.9947131217D+00 EUMP2 =    -0.28821765487009D+03
 SCF Done:  E(RHF) =  -287.222924338     A.U. after   10 cycles
 E2 =    -0.9948130071D+00 EUMP2 =    -0.28821773734465D+03
 SCF Done:  E(RHF) =  -287.222903299     A.U. after    8 cycles
 E2 =    -0.9948367080D+00 EUMP2 =    -0.28821774000658D+03
 SCF Done:  E(RHF) =  -287.222903516     A.U. after    7 cycles
 E2 =    -0.9948367535D+00 EUMP2 =    -0.28821774026948D+03
 Optimization completed.
    -- Stationary point found.
 Normal termination of Gaussian 16 at Tue Feb  8 12:57:18 2022.

 ----------------------------------------------------------------------
 #N Geom=AllCheck Guess=TCheck SCRF=Check GenChk RMP2(FC)/Aug-CC-pVDZ F
 req
 ----------------------------------------------------------------------

 Structure from the checkpoint file:  "/gscratch/scrubbed/gds001/Gau-21340.chk"
 -----------
 H Me Closed
 -----------
 Charge =  0 Multiplicity = 1

                         Standard orientation:
 ---------------------------------------------------------------------
 Center     Atomic      Atomic             Coordinates (Angstroms)
 Number     Number       Type             X           Y           Z
 ---------------------------------------------------------------------
      1          8           0        2.057518   -0.032164   -0.103955
      2          6           0        0.867991   -0.706522   -0.507836
      3          1           0        1.885134    0.217673    0.821668
      4          6           0       -0.396603    0.004302    0.005270
      5          1           0        0.865422   -1.751025   -0.133819
      6          1           0        0.869517   -0.737651   -1.609053
      7          7           0       -0.220341    0.109029    1.473948
      8          6           0       -1.635963   -0.807700   -0.393442
      9          6           0       -0.478686    1.424371   -0.561403
     10          1           0       -0.419164   -0.792348    1.915155
     11          1           0       -0.890045    0.773954    1.865158
     12          1           0       -1.366339    1.946293   -0.165050
     13          1           0       -0.564212    1.392270   -1.659011
     14          1           0        0.420119    1.999748   -0.297566
     15          1           0       -2.551481   -0.317233   -0.023672
     16          1           0       -1.592669   -1.823566    0.034496
     17          1           0       -1.714471   -0.900705   -1.489834
 ---------------------------------------------------------------------

 SCF Done:  E(RHF) =  -287.222903516     A.U. after    1 cycles
 E2 =    -0.9948367529D+00 EUMP2 =    -0.28821774026889D+03
 E2 =    -0.9948367529D+00 EUMP2 =    -0.28821774026889D+03

 The electronic state is 1-A.
 Alpha  occ. eigenvalues --  -20.55043 -15.56243 -11.27565 -11.27325 -11.23284
 Alpha  occ. eigenvalues --  -11.22496  -1.34686  -1.19824  -1.03562  -0.94090
 Alpha  occ. eigenvalues --   -0.91295  -0.76980  -0.68422  -0.64020  -0.63541
 Alpha  occ. eigenvalues --   -0.62651  -0.58167  -0.55298  -0.54556  -0.53003
 Alpha  occ. eigenvalues --   -0.51464  -0.48674  -0.46754  -0.42853  -0.40480
 Alpha virt. eigenvalues --    0.03137   0.04413   0.04499   0.05112   0.06627
 Alpha virt. eigenvalues --    0.06752   0.07100   0.07347   0.07578   0.09409
 Alpha virt. eigenvalues --    0.09729   0.12403   0.13667   0.14398   0.14894

 Mulliken charges:
               1
     1  O   -0.770502
     2  C    1.696661
     3  H    0.223993
     4  C   -3.255947
     5  H   -0.077140
     6  H   -0.079258
     7  N   -0.271730
     8  C    1.245292
     9  C    1.204184
    10  H    0.037379
    11  H    0.016082
    12  H   -0.034087
    13  H    0.003135
    14  H    0.042426
    15  H    0.030637
    16  H   -0.047915
    17  H    0.036791
 Sum of Mulliken charges =  -0.00000

 Dipole moment (field-independent basis, Debye):
    X=             -3.0520    Y=             -0.5051    Z=              0.7421  Tot=              3.1813
 Quadrupole moment (field-independent basis, Debye-Ang):
   XX=            -45.6127   YY=            -38.4007   ZZ=            -37.2227
   XY=             -0.5142   XZ=             -0.0754   YZ=             -0.1129

  Exact polarizability:  68.799   1.108  65.640   0.730   0.537  64.928
 Approx polarizability:  54.440   0.340  55.062  -0.118   0.591  56.273

                      1                      2                      3
                      A                      A                      A
 Frequencies --    147.7038               221.7641               246.0499
 Red. masses --      2.5279                 1.0747                 1.9614
 Frc consts  --      0.0325                 0.0311                 0.0700
 IR Inten    --      6.0514                 4.7522                 1.6928

                      4                      5                      6
                      A                      A                      A
 Frequencies --    259.5322               288.9856               346.2862
 Red. masses --      1.4114                 1.0830                 1.9891
 Frc consts  --      0.0560                 0.0533                 0.1405
 IR Inten    --      2.3604                 4.6344                 5.2955

                      7                      8                      9
                      A                      A                      A
 Frequencies --    361.9733               409.6325               439.1003
 Red. masses --      2.5282                 2.1096                 2.2552
 Frc consts  --      0.1952                 0.2086                 0.2562
 IR Inten    --      2.4794                 1.5011                 0.8634

                     10                     11                     12
                      A                      A                      A
 Frequencies --    540.0590               574.1329               770.3992
 Red. masses --      1.5649                 1.7772                 3.8116
 Frc consts  --      0.2689                 0.3451                 1.3329
 IR Inten    --     62.4953                67.6145                15.9650

                     13                     14                     15
                      A                      A                      A
 Frequencies --    873.8516               911.4998               943.2715
 Red. masses --      1.5181                 1.6232                 1.4899
 Frc consts  --      0.6830                 0.7946                 0.7810
 IR Inten    --     97.7337                16.2964                 2.8860

                     16                     17                     18
                      A                      A                      A
 Frequencies --    948.6805               985.8834              1037.6647
 Red. masses --      1.4858                 1.4622                 1.4547
 Frc consts  --      0.7879                 0.8374                 0.9229
 IR Inten    --      2.2834                 0.3569                 1.9449

                     19                     20                     21
                      A                      A                      A
 Frequencies --   1079.1973              1094.7699              1186.6699
 Red. masses --      4.1177                 1.4451                 1.3615
 Frc consts  --      2.8256                 1.0204                 1.1296
 IR Inten    --     95.6164                10.5276                 9.2187

                     22                     23                     24
                      A                      A                      A
 Frequencies --   1233.5648              1276.8728              1341.8003
 Red. masses --      2.3038                 2.2421                 1.6280
 Frc consts  --      2.0655                 2.1538                 1.7269
 IR Inten    --     18.0871                12.8892                15.5042

                     25                     26                     27
                      A                      A                      A
 Frequencies --   1359.7059              1388.2269              1402.0734
 Red. masses --      1.2732                 1.4364                 1.4047
 Frc consts  --      1.3869                 1.6310                 1.6269
 IR Inten    --      1.4385                 8.0116                 9.3092

                     28                     29                     30
                      A                      A                      A
 Frequencies --   1429.1475              1474.7532              1475.7544
 Red. masses --      1.2663                 1.0448                 1.0601
 Frc consts  --      1.5238                 1.3388                 1.3603
 IR Inten    --     50.1402                 0.0515                 1.6676

                     31                     32                     33
                      A                      A                      A
 Frequencies --   1491.5136              1497.7503              1503.4933
 Red. masses --      1.0685                 1.0914                 1.0779
 Frc consts  --      1.4005                 1.4424                 1.4355
 IR Inten    --      5.1299                 1.4503                12.2819

                     34                     35                     36
                      A                      A                      A
 Frequencies --   1629.1105              3007.6077              3041.4785
 Red. masses --      1.0982                 1.0680                 1.0354
 Frc consts  --      1.7173                 5.6918                 5.6433
 IR Inten    --     33.3629                64.4717                23.6831

                     37                     38                     39
                      A                      A                      A
 Frequencies --   3054.8430              3121.1660              3134.3944
 Red. masses --      1.0375                 1.0955                 1.1013
 Frc consts  --      5.7044                 6.2880                 6.3745
 IR Inten    --     19.7459                14.9177                30.8563

                     40                     41                     42
                      A                      A                      A
 Frequencies --   3138.4034              3143.5545              3172.2604
 Red. masses --      1.1015                 1.0998                 1.1011
 Frc consts  --      6.3919                 6.4035                 6.5286
 IR Inten    --      7.4111                45.8933                12.1353

                     43                     44                     45
                      A                      A                      A
 Frequencies --   3476.3913              3579.8913              3705.2842
 Red. masses --      1.0504                 1.0919                 1.0649
 Frc consts  --      7.4790                 8.2447                 8.6136
 IR Inten    --      0.5604                 2.4000                64.2556

 - Thermochemistry -
 -------------------
 Temperature   298.150 Kelvin.  Pressure   1.00000 Atm.
 Atom     1 has atomic number  8 and mass  15.99491

 Molecular mass:    89.08406 amu.
 Principal axes and moments of inertia in atomic units:
                           1         2         3
     Eigenvalues --   400.97170 676.14741 685.16557
           X            0.99986   0.00950   0.01378
           Y           -0.00715   0.98685  -0.16147
           Z           -0.01513   0.16135   0.98678
 This molecule is an asymmetric top.
 Rotational symmetry number  1.
 Rotational temperatures (Kelvin)      0.21601     0.12810     0.12641
 Rotational constants (GHZ):           4.50092     2.66915     2.63402
 Zero-point vibrational energy     405212.0 (Joules/Mol)
                                   96.84798 (Kcal/Mol)
 Warning -- explicit consideration of  11 degrees of freedom as
           vibrations may cause significant error
 Vibrational temperatures:    212.51   319.07   354.01   373.41   415.79
          (Kelvin)            498.23   520.80   589.37   631.77   777.02
                              826.05  1108.43  1257.28  1311.44  1357.16
                             1364.94  1418.47  1492.97  1552.72  1575.13
                             1707.35  1774.82  1837.14  1930.55  1956.31
                             1997.35  2017.27  2056.22  2121.84  2123.28
                             2145.96  2154.93  2163.19  2343.93  4327.28
                             4376.01  4395.24  4490.66  4509.69  4515.46
                             4522.87  4564.18  5001.75  5150.67  5331.08

 Zero-point correction=                           0.154337 (Hartree/Particle)
 Thermal correction to Energy=                    0.161928
 Thermal correction to Enthalpy=                  0.162872
 Thermal correction to Gibbs Free Energy=         0.123864
 Sum of electronic and zero-point Energies=           -288.063403
 Sum of electronic and thermal Energies=              -288.055813
 Sum of electronic and thermal Enthalpies=            -288.054869
 Sum of electronic and thermal Free Energies=         -288.093877

                     E (Thermal)             CV                S
                      KCal/Mol        Cal/Mol-Kelvin    Cal/Mol-Kelvin
 Total                  101.611             28.574             82.099
 Electronic               0.000              0.000              0.000
 Translational            0.889              2.981             39.373
 Rotational               0.889              2.981             26.721
 Vibrational             99.834             22.613             16.005
 Vibration     1          0.617              1.905              2.702
 Vibration     2          0.648              1.808              1.945
 Vibration     3          0.661              1.769              1.759
 Vibration     4          0.668              1.747              1.665
 Vibration     5          0.686              1.694              1.480
 Vibration     6          0.724              1.583              1.183
 Vibration     7          0.736              1.551              1.114
 Vibration     8          0.774              1.449              0.928
 Vibration     9          0.799              1.385              0.829
 Vibration    10          0.895              1.161              0.565
 Vibration    11          0.930              1.087              0.496

 Optimization completed.
    -- Stationary point found.
 Normal termination of Gaussian 16 at Tue Feb  8 13:09:34 2022.
