 Gaussian 16, Revision A.03,
 Gaussian 16:  ES64L-G16RevA.03 25-Dec-2016

 --------------------------
 # MP2/aug-cc-pVDZ opt freq
 --------------------------

 ---------
 H Me Open
 ---------
 Symbolic Z-matrix:
 Charge =  0 Multiplicity = 1

 SCF Done:  E(RHF) =  -287.214488743     A.U. after   13 cycles
 E2 =    -0.9910458437D+00 EUMP2 =    -0.28820553458665D+03
 SCF Done:  E(RHF) =  -287.214943948     A.U. after   11 cycles
 E2 =    -0.9939454097D+00 EUMP2 =    -0.28820888935758D+03
 SCF Done:  E(RHF) =  -287.215733014     A.U. after   10 cycles
 E2 =    -0.9935614615D+00 EUMP2 =    -0.28820929447548D+03
 SCF Done:  E(RHF) =  -287.215805564     A.U. after    9 cycles
 E2 =    -0.9935255269D+00 EUMP2 =    -0.28820933109133D+03
 SCF Done:  E(RHF) =  -287.215826831     A.U. after   10 cycles
 E2 =    -0.9935296077D+00 EUMP2 =    -0.28820935643911D+03
 SCF Done:  E(RHF) =  -287.215807936     A.U. after    9 cycles
 E2 =    -0.9935553477D+00 EUMP2 =    -0.28820936328349D+03
 SCF Done:  E(RHF) =  -287.215807696     A.U. after    9 cycles
 E2 =    -0.9935605543D+00 EUMP2 =    -0.28820936825062D+03
 SCF Done:  E(RHF) =  -287.215818837     A.U. after    8 cycles
 E2 =    -0.9935506137D+00 EUMP2 =    -0.28820936945067D+03
 SCF Done:  E(RHF) =  -287.215822536     A.U. after    8 cycles
 E2 =    -0.9935473307D+00 EUMP2 =    -0.28820936986667D+03
 SCF Done:  E(RHF) =  -287.215826309     A.U. after    9 cycles
 E2 =    -0.9935443289D+00 EUMP2 =    -0.28820937063800D+03
 SCF Done:  E(RHF) =  -287.215824661     A.U. after    8 cycles
 E2 =    -0.9935464380D+00 EUMP2 =    -0.28820937109876D+03
 SCF Done:  E(RHF) =  -287.215823053     A.U. after    7 cycles
 E2 =    -0.9935481534D+00 EUMP2 =    -0.28820937120599D+03
 Optimization completed.
    -- Stationary point found.
 Normal termination of Gaussian 16 at Tue Feb  8 14:34:35 2022.

 ----------------------------------------------------------------------
 #N Geom=AllCheck Guess=TCheck SCRF=Check GenChk RMP2(FC)/Aug-CC-pVDZ F
 req
 ----------------------------------------------------------------------

 Structure from the checkpoint file:  "/gscratch/scrubbed/gds001/Gau-17392.chk"
 ---------
 H Me Open
 ---------
 Charge =  0 Multiplicity = 1

                         Standard orientation:
 ---------------------------------------------------------------------
 Center     Atomic      Atomic             Coordinates (Angstroms)
 Number     Number       Type             X           Y           Z
 ---------------------------------------------------------------------
      1          8           0        2.024437    0.073443    0.037783
      2          6           0        0.896928   -0.728690   -0.331299
      3          1           0        2.823432   -0.439793   -0.141194
      4          6           0       -0.401602    0.007310    0.018273
      5          1           0        0.912113   -1.697965    0.204870
      6          1           0        0.905301   -0.934234   -1.418637
      7          7           0       -0.489102    0.107939    1.488647
      8          6           0       -1.571597   -0.788245   -0.590596
      9          6           0       -0.376809    1.430099   -0.549023
     10          1           0       -0.619790   -0.823199    1.892527
     11          1           0       -1.323484    0.642409    1.742112
     12          1           0       -1.328257    1.941560   -0.324127
     13          1           0       -0.251037    1.408559   -1.643541
     14          1           0        0.449776    2.000794   -0.105220
     15          1           0       -2.527761   -0.315839   -0.312065
     16          1           0       -1.580541   -1.824386   -0.210151
     17          1           0       -1.513065   -0.823871   -1.691499
 ---------------------------------------------------------------------

 SCF Done:  E(RHF) =  -287.215823053     A.U. after    1 cycles
 E2 =    -0.9935481672D+00 EUMP2 =    -0.28820937121984D+03
 E2 =    -0.9935481672D+00 EUMP2 =    -0.28820937121984D+03

 The electronic state is 1-A.
 Alpha  occ. eigenvalues --  -20.56208 -15.54343 -11.28125 -11.26568 -11.22612
 Alpha  occ. eigenvalues --  -11.21379  -1.35356  -1.18625  -1.02667  -0.93150
 Alpha  occ. eigenvalues --   -0.91590  -0.74962  -0.68911  -0.65769  -0.64044
 Alpha  occ. eigenvalues --   -0.59078  -0.57703  -0.56101  -0.53012  -0.52860
 Alpha  occ. eigenvalues --   -0.50085  -0.48107  -0.45649  -0.44078  -0.38561
 Alpha virt. eigenvalues --    0.03345   0.04213   0.04732   0.04943   0.06554
 Alpha virt. eigenvalues --    0.06709   0.06956   0.07451   0.07842   0.09272
 Alpha virt. eigenvalues --    0.09730   0.12559   0.14195   0.14404   0.15419

 Mulliken charges:
               1
     1  O   -0.670745
     2  C    1.675890
     3  H    0.123220
     4  C   -3.393680
     5  H   -0.072376
     6  H   -0.072352
     7  N   -0.089901
     8  C    1.217557
     9  C    1.229555
    10  H   -0.024752
    11  H   -0.005031
    12  H   -0.016234
    13  H    0.026784
    14  H    0.075963
    15  H    0.006382
    16  H   -0.015306
    17  H    0.005028
 Sum of Mulliken charges =  -0.00000

 Dipole moment (field-independent basis, Debye):
    X=             -0.9391    Y=             -2.0037    Z=             -1.0791  Tot=              2.4620
 Quadrupole moment (field-independent basis, Debye-Ang):
   XX=            -35.9884   YY=            -38.5879   ZZ=            -40.6569
   XY=             -4.1916   XZ=             -3.7784   YZ=             -1.1692

  Exact polarizability:  70.007   0.717  66.222   0.457   0.371  64.926
 Approx polarizability:  55.448  -0.407  55.618  -0.376   0.262  55.019

                      1                      2                      3
                      A                      A                      A
 Frequencies --    101.7034               197.6959               214.2195
 Red. masses --      2.3606                 1.0631                 1.2328
 Frc consts  --      0.0144                 0.0245                 0.0333
 IR Inten    --     15.9559                81.8253                25.8790

                      4                      5                      6
                      A                      A                      A
 Frequencies --    244.9740               255.9986               279.3120
 Red. masses --      1.2372                 1.9393                 1.0720
 Frc consts  --      0.0437                 0.0749                 0.0493
 IR Inten    --     10.7964                10.3481                 3.6868

                      7                      8                      9
                      A                      A                      A
 Frequencies --    339.3514               368.5062               414.1065
 Red. masses --      2.1815                 2.9372                 2.1197
 Frc consts  --      0.1480                 0.2350                 0.2142
 IR Inten    --      1.3372                 6.9170                 0.6608

                     10                     11                     12
                      A                      A                      A
 Frequencies --    438.9159               539.5624               762.8521
 Red. masses --      2.3740                 3.0959                 3.5690
 Frc consts  --      0.2695                 0.5310                 1.2237
 IR Inten    --      6.5013                12.2175                 5.6573

                     13                     14                     15
                      A                      A                      A
 Frequencies --    854.3684               913.8498               939.8450
 Red. masses --      1.4143                 1.7373                 1.4389
 Frc consts  --      0.6082                 0.8548                 0.7489
 IR Inten    --    134.0514                 0.6004                 1.7565

                     16                     17                     18
                      A                      A                      A
 Frequencies --    960.8840               989.3278              1036.4415
 Red. masses --      1.6736                 1.4299                 1.4461
 Frc consts  --      0.9104                 0.8246                 0.9153
 IR Inten    --      6.4945                 2.1893                 2.1138

                     19                     20                     21
                      A                      A                      A
 Frequencies --   1078.8698              1101.4411              1195.9119
 Red. masses --      4.5311                 1.5290                 1.6610
 Frc consts  --      3.1074                 1.0929                 1.3996
 IR Inten    --     90.6404                 2.2343                40.3038

                     22                     23                     24
                      A                      A                      A
 Frequencies --   1225.2289              1255.1786              1311.3631
 Red. masses --      1.4094                 1.6547                 1.6454
 Frc consts  --      1.2466                 1.5359                 1.6671
 IR Inten    --      7.4656                13.3701                 8.2271

                     25                     26                     27
                      A                      A                      A
 Frequencies --   1356.3350              1382.2512              1399.2033
 Red. masses --      1.4362                 1.3965                 1.4620
 Frc consts  --      1.5567                 1.5720                 1.6864
 IR Inten    --      1.8461                 9.5017                 8.4566

                     28                     29                     30
                      A                      A                      A
 Frequencies --   1440.8988              1472.9302              1475.3171
 Red. masses --      1.4364                 1.0483                 1.0534
 Frc consts  --      1.7571                 1.3400                 1.3509
 IR Inten    --      1.0524                 1.2224                 0.9318

                     31                     32                     33
                      A                      A                      A
 Frequencies --   1491.0713              1496.5145              1507.1032
 Red. masses --      1.0693                 1.0991                 1.1015
 Frc consts  --      1.4007                 1.4503                 1.4741
 IR Inten    --      3.8112                 1.3214                14.2870

                     34                     35                     36
                      A                      A                      A
 Frequencies --   1630.9654              3012.5520              3039.5296
 Red. masses --      1.0993                 1.0562                 1.0356
 Frc consts  --      1.7229                 5.6474                 5.6368
 IR Inten    --     30.3693                52.1790                27.4989

                     37                     38                     39
                      A                      A                      A
 Frequencies --   3054.6502              3068.2374              3130.7317
 Red. masses --      1.0378                 1.1065                 1.1013
 Frc consts  --      5.7053                 6.1374                 6.3601
 IR Inten    --     21.7928                39.4932                31.4894

                     40                     41                     42
                      A                      A                      A
 Frequencies --   3137.4785              3142.4051              3183.2060
 Red. masses --      1.1010                 1.1006                 1.1003
 Frc consts  --      6.3855                 6.4033                 6.5689
 IR Inten    --      3.1670                53.1542                 8.5214

                     43                     44                     45
                      A                      A                      A
 Frequencies --   3467.5869              3569.9312              3830.2906
 Red. masses --      1.0500                 1.0916                 1.0668
 Frc consts  --      7.4384                 8.1969                 9.2217
 IR Inten    --      2.5120                 0.2474                37.6539

 - Thermochemistry -
 -------------------
 Temperature   298.150 Kelvin.  Pressure   1.00000 Atm.
 Atom     1 has atomic number  8 and mass  15.99491

 Molecular mass:    89.08406 amu.
 Principal axes and moments of inertia in atomic units:
                           1         2         3
     Eigenvalues --   401.40943 683.67328 694.99792
           X            0.99990  -0.01384  -0.00216
           Y            0.01308   0.97775  -0.20938
           Z            0.00500   0.20933   0.97783
 This molecule is an asymmetric top.
 Rotational symmetry number  1.
 Rotational temperatures (Kelvin)      0.21577     0.12669     0.12462
 Rotational constants (GHZ):           4.49601     2.63977     2.59676
 Zero-point vibrational energy     402597.8 (Joules/Mol)
                                   96.22319 (Kcal/Mol)
 Warning -- explicit consideration of  11 degrees of freedom as
           vibrations may cause significant error
 Vibrational temperatures:    146.33   284.44   308.21   352.46   368.32
          (Kelvin)            401.87   488.25   530.20   595.81   631.50
                              776.31  1097.57  1229.25  1314.83  1352.23
                             1382.50  1423.42  1491.21  1552.25  1584.73
                             1720.65  1762.83  1805.92  1886.76  1951.46
                             1988.75  2013.14  2073.13  2119.22  2122.65
                             2145.32  2153.15  2168.39  2346.60  4334.39
                             4373.21  4394.96  4414.51  4504.42  4514.13
                             4521.22  4579.92  4989.08  5136.33  5510.93

 Zero-point correction=                           0.153341 (Hartree/Particle)
 Thermal correction to Energy=                    0.161439
 Thermal correction to Enthalpy=                  0.162383
 Thermal correction to Gibbs Free Energy=         0.122157
 Sum of electronic and zero-point Energies=           -288.056030
 Sum of electronic and thermal Energies=              -288.047932
 Sum of electronic and thermal Enthalpies=            -288.046988
 Sum of electronic and thermal Free Energies=         -288.087214

                     E (Thermal)             CV                S
                      KCal/Mol        Cal/Mol-Kelvin    Cal/Mol-Kelvin
 Total                  101.305             29.447             84.664
 Electronic               0.000              0.000              0.000
 Translational            0.889              2.981             39.373
 Rotational               0.889              2.981             26.747
 Vibrational             99.527             23.485             18.543
 Vibration     1          0.604              1.948              3.421
 Vibration     2          0.637              1.843              2.154
 Vibration     3          0.644              1.819              2.007
 Vibration     4          0.660              1.771              1.766
 Vibration     5          0.666              1.753              1.689
 Vibration     6          0.680              1.712              1.538
 Vibration     7          0.719              1.597              1.215
 Vibration     8          0.741              1.537              1.086
 Vibration     9          0.778              1.440              0.912
 Vibration    10          0.799              1.385              0.830
 Vibration    11          0.895              1.163              0.566

 Optimization completed.
    -- Stationary point found.
 Normal termination of Gaussian 16 at Tue Feb  8 14:46:57 2022.
