 Gaussian 16, Revision A.03,
 Gaussian 16:  ES64L-G16RevA.03 25-Dec-2016

 --------------------------
 # MP2/aug-cc-pVDZ opt freq
 --------------------------

 ---------------
 H Me Ref Closed
 ---------------
 Symbolic Z-matrix:
 Charge =  0 Multiplicity = 1

 SCF Done:  E(RHF) =  -232.181811924     A.U. after   13 cycles
 E2 =    -0.8083762054D+00 EUMP2 =    -0.23299018812914D+03
 SCF Done:  E(RHF) =  -232.181657240     A.U. after   11 cycles
 E2 =    -0.8102260888D+00 EUMP2 =    -0.23299188332913D+03
 SCF Done:  E(RHF) =  -232.181819543     A.U. after   10 cycles
 E2 =    -0.8101787806D+00 EUMP2 =    -0.23299199832318D+03
 SCF Done:  E(RHF) =  -232.181860153     A.U. after    9 cycles
 E2 =    -0.8101518423D+00 EUMP2 =    -0.23299201199557D+03
 SCF Done:  E(RHF) =  -232.181866478     A.U. after    9 cycles
 E2 =    -0.8101507238D+00 EUMP2 =    -0.23299201720154D+03
 SCF Done:  E(RHF) =  -232.181869232     A.U. after    9 cycles
 E2 =    -0.8101518883D+00 EUMP2 =    -0.23299202112013D+03
 SCF Done:  E(RHF) =  -232.181878421     A.U. after    9 cycles
 E2 =    -0.8101441669D+00 EUMP2 =    -0.23299202258781D+03
 SCF Done:  E(RHF) =  -232.181880013     A.U. after    8 cycles
 E2 =    -0.8101427202D+00 EUMP2 =    -0.23299202273355D+03
 Optimization completed.
    -- Stationary point found.

 1\1\GINC-N2109\FOpt\RMP2-FC\Aug-CC-pVDZ\C4H10O1\GDS001\08-Feb-2022\0\\
 # MP2/aug-cc-pVDZ opt freq\\H Me Ref Closed\\0,1\O,-1.560742166,-0.692
 6240892,-0.0542315877\C,-0.8202040862,0.4713531269,0.3483923017\H,-1.1
 048615189,-1.4656834154,0.3068867655\C,0.5819343168,0.5464067674,-0.26
 24256971\H,-0.7571246177,0.5261273054,1.4516756118\H,-1.4215413825,1.3
 282270308,0.0020715839\H,1.1397124345,-0.3535665944,0.0641632141\C,1.3
 085636134,1.7879707997,0.2713615403\C,0.5137724369,0.5575012971,-1.793
 4265093\H,1.5239253785,0.5567793962,-2.2337048047\H,-0.0084757605,1.46

 Normal termination of Gaussian 16 at Tue Feb  8 12:53:57 2022.

 ----------------------------------------------------------------------
 #N Geom=AllCheck Guess=TCheck SCRF=Check GenChk RMP2(FC)/Aug-CC-pVDZ F
 req
 ----------------------------------------------------------------------

 Structure from the checkpoint file:  "/gscratch/scrubbed/gds001/Gau-23119.chk"
 ---------------
 H Me Ref Closed
 ---------------
 Charge =  0 Multiplicity = 1

                         Standard orientation:
 ---------------------------------------------------------------------
 Center     Atomic      Atomic             Coordinates (Angstroms)
 Number     Number       Type             X           Y           Z
 ---------------------------------------------------------------------
      1          8           0       -2.019572   -0.010595   -0.030802
      2          6           0       -0.779266   -0.666051    0.281230
      3          1           0       -2.163672   -0.100702   -0.983152
      4          6           0        0.444109    0.007953   -0.346302
      5          1           0       -0.820125   -1.731065   -0.015904
      6          1           0       -0.701600   -0.625372    1.380362
      7          1           0        0.308284   -0.005128   -1.445897
      8          6           0        1.705313   -0.795937   -0.003484
      9          6           0        0.568472    1.462732    0.119406
     10          1           0        1.416942    1.964032   -0.373595
     11          1           0        0.739739    1.496741    1.209407
     12          1           0       -0.348389    2.029697   -0.098654
     13          1           0        2.598360   -0.339313   -0.458778
     14          1           0        1.635038   -1.836191   -0.361488
     15          1           0        1.860231   -0.820117    1.089013
 ---------------------------------------------------------------------

 SCF Done:  E(RHF) =  -232.181880013     A.U. after    1 cycles
 E2 =    -0.8101427199D+00 EUMP2 =    -0.23299202273326D+03
 E2 =    -0.8101427199D+00 EUMP2 =    -0.23299202273326D+03

 The electronic state is 1-A.
 Alpha  occ. eigenvalues --  -20.56575 -11.28065 -11.23703 -11.22780 -11.21909
 Alpha  occ. eigenvalues --   -1.35444  -1.07950  -0.92879  -0.91223  -0.78148
 Alpha  occ. eigenvalues --   -0.67573  -0.64178  -0.61214  -0.57988  -0.54988
 Alpha  occ. eigenvalues --   -0.53349  -0.52056  -0.49573  -0.47235  -0.46160
 Alpha  occ. eigenvalues --   -0.43068
 Alpha virt. eigenvalues --    0.03462   0.04392   0.04692   0.05043   0.06877
 Alpha virt. eigenvalues --    0.07122   0.07175   0.07613   0.07778   0.09453
 Alpha virt. eigenvalues --    0.13033   0.13838   0.14736   0.15436   0.15530

 Mulliken charges:
               1
     1  O   -0.723506
     2  C    1.288835
     3  H    0.140436
     4  C   -1.592991
     5  H   -0.111425
     6  H   -0.122926
     7  H   -0.129468
     8  C    0.704756
     9  C    0.728926
    10  H   -0.048893
    11  H    0.003350
    12  H   -0.034868
    13  H   -0.054458
    14  H   -0.062520
    15  H    0.014753
 Sum of Mulliken charges =  -0.00000

 Dipole moment (field-independent basis, Debye):
    X=              1.2022    Y=             -0.7370    Z=             -1.1927  Tot=              1.8469
 Quadrupole moment (field-independent basis, Debye-Ang):
   XX=            -37.6786   YY=            -34.0178   ZZ=            -31.2797
   XY=              1.0058   XZ=              3.1165   YZ=              0.0456

  Exact polarizability:  61.579  -0.914  58.707   0.907  -0.269  52.731
 Approx polarizability:  47.398  -0.599  47.194   0.804  -0.059  48.909

                      1                      2                      3
                      A                      A                      A
 Frequencies --    128.1832               217.6382               239.5777
 Red. masses --      2.0736                 1.0844                 1.3808
 Frc consts  --      0.0201                 0.0303                 0.0467
 IR Inten    --      3.1868                 0.9282                 0.9830

                      4                      5                      6
                      A                      A                      A
 Frequencies --    263.8899               278.2109               348.9942
 Red. masses --      1.8844                 1.1116                 2.2100
 Frc consts  --      0.0773                 0.0507                 0.1586
 IR Inten    --     24.5506                85.4730                 0.6877

                      7                      8                      9
                      A                      A                      A
 Frequencies --    426.8166               492.0436               836.2950
 Red. masses --      1.8238                 3.4842                 2.4629
 Frc consts  --      0.1958                 0.4970                 1.0149
 IR Inten    --      8.1671                 5.8211                 3.3323

                     10                     11                     12
                      A                      A                      A
 Frequencies --    898.0300               920.9035               955.0454
 Red. masses --      1.3271                 1.1645                 1.5350
 Frc consts  --      0.6306                 0.5819                 0.8249
 IR Inten    --      8.0616                 0.5234                 2.3110

                     13                     14                     15
                      A                      A                      A
 Frequencies --    981.5309              1056.7859              1108.2707
 Red. masses --      1.7011                 3.3138                 1.3888
 Frc consts  --      0.9656                 2.1804                 1.0050
 IR Inten    --      3.5851               116.1614                 0.7997

                     16                     17                     18
                      A                      A                      A
 Frequencies --   1157.0124              1200.8399              1246.4440
 Red. masses --      2.0996                 1.7029                 1.5936
 Frc consts  --      1.6560                 1.4468                 1.4587
 IR Inten    --      0.4368                 0.1395                 8.6682

                     19                     20                     21
                      A                      A                      A
 Frequencies --   1311.6513              1356.8670              1373.6637
 Red. masses --      1.2622                 1.3399                 1.3125
 Frc consts  --      1.2795                 1.4535                 1.4592
 IR Inten    --      1.0694                 1.1696                 6.2227

                     22                     23                     24
                      A                      A                      A
 Frequencies --   1387.5787              1393.1665              1412.3301
 Red. masses --      1.3868                 1.3188                 1.2653
 Frc consts  --      1.5732                 1.5081                 1.4870
 IR Inten    --     11.4385                 3.7597                24.0498

                     25                     26                     27
                      A                      A                      A
 Frequencies --   1476.3072              1479.7383              1492.7953
 Red. masses --      1.0546                 1.0453                 1.0577
 Frc consts  --      1.3542                 1.3485                 1.3888
 IR Inten    --      1.1422                 1.1897                 4.9315

                     28                     29                     30
                      A                      A                      A
 Frequencies --   1495.6140              1503.2426              3031.4517
 Red. masses --      1.0808                 1.0592                 1.0824
 Frc consts  --      1.4244                 1.4102                 5.8603
 IR Inten    --      1.3849                14.3941                24.2607

                     31                     32                     33
                      A                      A                      A
 Frequencies --   3038.3811              3048.3767              3051.3746
 Red. masses --      1.0626                 1.0369                 1.0379
 Frc consts  --      5.7797                 5.6769                 5.6938
 IR Inten    --     43.2462                35.4794                23.2575

                     34                     35                     36
                      A                      A                      A
 Frequencies --   3117.4176              3134.3869              3137.9867
 Red. masses --      1.1016                 1.1006                 1.1001
 Frc consts  --      6.3074                 6.3707                 6.3823
 IR Inten    --     21.2522                12.7844                56.4216

                     37                     38                     39
                      A                      A                      A
 Frequencies --   3147.7793              3164.9402              3816.0255
 Red. masses --      1.1013                 1.1006                 1.0665
 Frc consts  --      6.4293                 6.4956                 9.1502
 IR Inten    --     28.6677                16.5333                28.6089

 - Thermochemistry -
 -------------------
 Temperature   298.150 Kelvin.  Pressure   1.00000 Atm.
 Atom     1 has atomic number  8 and mass  15.99491

 Molecular mass:    74.07317 amu.
 Principal axes and moments of inertia in atomic units:
                           1         2         3
     Eigenvalues --   240.12437 520.68732 684.21223
           X            0.99994  -0.00192   0.01089
           Y            0.00190   1.00000   0.00155
           Z           -0.01089  -0.00153   0.99994
 This molecule is an asymmetric top.
 Rotational symmetry number  1.
 Rotational temperatures (Kelvin)      0.36070     0.16635     0.12659
 Rotational constants (GHZ):           7.51586     3.46607     2.63769
 Zero-point vibrational energy     359642.8 (Joules/Mol)
                                   85.95670 (Kcal/Mol)
 Warning -- explicit consideration of   8 degrees of freedom as
           vibrations may cause significant error
 Vibrational temperatures:    184.43   313.13   344.70   379.68   400.28
          (Kelvin)            502.12   614.09   707.94  1203.24  1292.06
                             1324.97  1374.10  1412.20  1520.48  1594.55
                             1664.68  1727.74  1793.35  1887.17  1952.23
                             1976.40  1996.42  2004.46  2032.03  2124.08
                             2129.01  2147.80  2151.85  2162.83  4361.58
                             4371.55  4385.93  4390.25  4485.27  4509.68
                             4514.86  4528.95  4553.64  5490.41

 Zero-point correction=                           0.136981 (Hartree/Particle)
 Thermal correction to Energy=                    0.143759
 Thermal correction to Enthalpy=                  0.144703
 Thermal correction to Gibbs Free Energy=         0.107388
 Sum of electronic and zero-point Energies=           -232.855042
 Sum of electronic and thermal Energies=              -232.848264
 Sum of electronic and thermal Enthalpies=            -232.847320
 Sum of electronic and thermal Free Energies=         -232.884634

                     E (Thermal)             CV                S
                      KCal/Mol        Cal/Mol-Kelvin    Cal/Mol-Kelvin
 Total                   90.210             23.883             78.535
 Electronic               0.000              0.000              0.000
 Translational            0.889              2.981             38.823
 Rotational               0.889              2.981             25.951
 Vibrational             88.433             17.922             13.761
 Vibration     1          0.611              1.925              2.973
 Vibration     2          0.646              1.814              1.979
 Vibration     3          0.657              1.780              1.806
 Vibration     4          0.670              1.739              1.636
 Vibration     5          0.679              1.714              1.545
 Vibration     6          0.726              1.577              1.171
 Vibration     7          0.788              1.412              0.869
 Vibration     8          0.848              1.268              0.678

 Optimization completed.
    -- Stationary point found.

 1\1\GINC-N2109\Freq\RMP2-FC\Aug-CC-pVDZ\C4H10O1\GDS001\08-Feb-2022\0\\
 #N Geom=AllCheck Guess=TCheck SCRF=Check GenChk RMP2(FC)/Aug-CC-pVDZ F
 req\\H Me Ref Closed\\0,1\O,-1.560742166,-0.6926240892,-0.0542315877\C
 ,-0.8202040862,0.4713531269,0.3483923017\H,-1.1048615189,-1.4656834154
 ,0.3068867655\C,0.5819343168,0.5464067674,-0.2624256971\H,-0.757124617
 7,0.5261273054,1.4516756118\H,-1.4215413825,1.3282270308,0.0020715839\
 H,1.1397124345,-0.3535665944,0.0641632141\C,1.3085636134,1.7879707997,
 0.2713615403\C,0.5137724369,0.5575012971,-1.7934265093\H,1.5239253785,

 Normal termination of Gaussian 16 at Tue Feb  8 13:00:00 2022.
