 Gaussian 16, Revision A.03,
 Gaussian 16:  ES64L-G16RevA.03 25-Dec-2016

 --------------------------
 # MP2/aug-cc-pVDZ opt freq
 --------------------------

 -------------
 H Me Ref Open
 -------------
 Symbolic Z-matrix:
 Charge =  0 Multiplicity = 1

 SCF Done:  E(RHF) =  -232.182460084     A.U. after   13 cycles
 E2 =    -0.8080786766D+00 EUMP2 =    -0.23299053876024D+03
 SCF Done:  E(RHF) =  -232.181823075     A.U. after   11 cycles
 E2 =    -0.8102746873D+00 EUMP2 =    -0.23299209776258D+03
 SCF Done:  E(RHF) =  -232.182152161     A.U. after    9 cycles
 E2 =    -0.8100664506D+00 EUMP2 =    -0.23299221861173D+03
 SCF Done:  E(RHF) =  -232.182176729     A.U. after    8 cycles
 E2 =    -0.8100455324D+00 EUMP2 =    -0.23299222226190D+03
 SCF Done:  E(RHF) =  -232.182173179     A.U. after    8 cycles
 E2 =    -0.8100495157D+00 EUMP2 =    -0.23299222269492D+03
 SCF Done:  E(RHF) =  -232.182168365     A.U. after    7 cycles
 E2 =    -0.8100544542D+00 EUMP2 =    -0.23299222281961D+03
 SCF Done:  E(RHF) =  -232.182166730     A.U. after    7 cycles
 E2 =    -0.8100561601D+00 EUMP2 =    -0.23299222289054D+03
 Optimization completed.
    -- Stationary point found.

 1\1\GINC-N2108\FOpt\RMP2-FC\Aug-CC-pVDZ\C4H10O1\GDS001\08-Feb-2022\0\\
 # MP2/aug-cc-pVDZ opt freq\\H Me Ref Open\\0,1\O,-1.4804482101,-0.7035
 597678,-0.0563956665\C,-0.8360349751,0.5117671035,0.3670981679\H,-2.36
 38558938,-0.7267278835,0.3346982636\C,0.5605158023,0.5525514761,-0.245
 2275667\H,-0.7647281251,0.5446950536,1.4702273692\H,-1.4124197298,1.39
 50272153,0.0280387309\H,1.090574732,-0.3568351187,0.0915716001\C,1.312
 1587657,1.7874937933,0.2685943214\C,0.4879877422,0.545696965,-1.776500
 5092\H,1.4988715119,0.5459690282,-2.2153448791\H,-0.0386235359,1.44714

 Normal termination of Gaussian 16 at Tue Feb  8 12:53:23 2022.

 ----------------------------------------------------------------------
 #N Geom=AllCheck Guess=TCheck SCRF=Check GenChk RMP2(FC)/Aug-CC-pVDZ F
 req
 ----------------------------------------------------------------------

 Structure from the checkpoint file:  "/gscratch/scrubbed/gds001/Gau-22468.chk"
 -------------
 H Me Ref Open
 -------------
 Charge =  0 Multiplicity = 1

                         Standard orientation:
 ---------------------------------------------------------------------
 Center     Atomic      Atomic             Coordinates (Angstroms)
 Number     Number       Type             X           Y           Z
 ---------------------------------------------------------------------
      1          8           0       -1.949072    0.039303   -0.175901
      2          6           0       -0.776216   -0.675837    0.253773
      3          1           0       -2.722701   -0.396514    0.205492
      4          6           0        0.448510    0.006238   -0.347710
      5          1           0       -0.823693   -1.728631   -0.081537
      6          1           0       -0.698078   -0.664625    1.358806
      7          1           0        0.318058    0.001284   -1.445133
      8          6           0        1.709405   -0.792034    0.008614
      9          6           0        0.558179    1.458118    0.131999
     10          1           0        1.427395    1.956435   -0.326928
     11          1           0        0.689444    1.487505    1.227999
     12          1           0       -0.346375    2.028973   -0.122222
     13          1           0        2.603317   -0.327607   -0.436892
     14          1           0        1.650328   -1.831136   -0.354756
     15          1           0        1.855611   -0.819015    1.102319
 ---------------------------------------------------------------------

 SCF Done:  E(RHF) =  -232.182166730     A.U. after    1 cycles
 E2 =    -0.8100561584D+00 EUMP2 =    -0.23299222288887D+03
 E2 =    -0.8100561584D+00 EUMP2 =    -0.23299222288887D+03

 The electronic state is 1-A.
 Alpha  occ. eigenvalues --  -20.56563 -11.28093 -11.23111 -11.22381 -11.21410
 Alpha  occ. eigenvalues --   -1.35418  -1.07657  -0.92425  -0.91107  -0.76696
 Alpha  occ. eigenvalues --   -0.68805  -0.64706  -0.60235  -0.58211  -0.53869
 Alpha  occ. eigenvalues --   -0.53114  -0.52444  -0.47405  -0.46940  -0.45647
 Alpha  occ. eigenvalues --   -0.43934
 Alpha virt. eigenvalues --    0.03581   0.04348   0.04898   0.04993   0.06749
 Alpha virt. eigenvalues --    0.07109   0.07320   0.07697   0.07779   0.09321
 Alpha virt. eigenvalues --    0.12945   0.14340   0.14935   0.15713   0.15948

 Mulliken charges:
               1
     1  O   -0.706810
     2  C    1.242662
     3  H    0.131106
     4  C   -1.565504
     5  H   -0.140787
     6  H   -0.095764
     7  H   -0.076978
     8  C    0.704504
     9  C    0.732648
    10  H   -0.054536
    11  H   -0.013465
    12  H   -0.031526
    13  H   -0.063377
    14  H   -0.066480
    15  H    0.004310
 Sum of Mulliken charges =  -0.00000

 Dipole moment (field-independent basis, Debye):
    X=              0.0266    Y=             -1.3241    Z=              0.8539  Tot=              1.5758
 Quadrupole moment (field-independent basis, Debye-Ang):
   XX=            -31.7535   YY=            -33.7695   ZZ=            -33.7134
   XY=              2.9695   XZ=             -2.6315   YZ=             -0.2945

  Exact polarizability:  62.587  -0.494  58.812  -0.040  -0.362  52.012
 Approx polarizability:  48.199   0.001  47.554  -0.016  -0.590  47.626

                      1                      2                      3
                      A                      A                      A
 Frequencies --    120.7140               218.2833               245.8620
 Red. masses --      2.4689                 1.0882                 1.2434
 Frc consts  --      0.0212                 0.0305                 0.0443
 IR Inten    --      9.9589                 1.9799                 9.3986

                      4                      5                      6
                      A                      A                      A
 Frequencies --    255.9846               269.7089               353.1144
 Red. masses --      1.2995                 1.5451                 2.1908
 Frc consts  --      0.0502                 0.0662                 0.1609
 IR Inten    --     66.5530                28.0927                 0.1797

                      7                      8                      9
                      A                      A                      A
 Frequencies --    420.4675               485.2512               830.4894
 Red. masses --      1.8982                 3.5485                 2.3686
 Frc consts  --      0.1977                 0.4923                 0.9625
 IR Inten    --      1.4332                 9.7530                 2.9597

                     10                     11                     12
                      A                      A                      A
 Frequencies --    918.1282               923.1076               958.3521
 Red. masses --      1.3319                 1.1558                 1.4806
 Frc consts  --      0.6615                 0.5803                 0.8012
 IR Inten    --      1.2627                 0.3062                 1.7217

                     13                     14                     15
                      A                      A                      A
 Frequencies --    980.6247              1060.5170              1128.6822
 Red. masses --      1.6312                 5.7289                 1.6546
 Frc consts  --      0.9242                 3.7963                 1.2419
 IR Inten    --      7.1519                89.0939                14.9335

                     16                     17                     18
                      A                      A                      A
 Frequencies --   1174.6506              1193.4681              1255.3047
 Red. masses --      1.7054                 1.6481                 1.1571
 Frc consts  --      1.3864                 1.3831                 1.0743
 IR Inten    --      1.6259                 4.0660                23.6852

                     19                     20                     21
                      A                      A                      A
 Frequencies --   1272.2807              1325.6020              1359.0776
 Red. masses --      1.2791                 1.4185                 1.3075
 Frc consts  --      1.2199                 1.4686                 1.4229
 IR Inten    --      7.1506                 4.2379                 0.3183

                     22                     23                     24
                      A                      A                      A
 Frequencies --   1386.4381              1398.7842              1438.7954
 Red. masses --      1.4190                 1.3088                 1.4463
 Frc consts  --      1.6071                 1.5088                 1.7640
 IR Inten    --      5.0984                 4.2350                 2.6354

                     25                     26                     27
                      A                      A                      A
 Frequencies --   1476.6271              1481.1050              1493.2194
 Red. masses --      1.0530                 1.0443                 1.0577
 Frc consts  --      1.3528                 1.3497                 1.3894
 IR Inten    --      1.7381                 1.7711                 5.9470

                     28                     29                     30
                      A                      A                      A
 Frequencies --   1503.6184              1507.5539              3015.4879
 Red. masses --      1.0959                 1.0693                 1.0572
 Frc consts  --      1.4598                 1.4319                 5.6639
 IR Inten    --      4.3943                11.2348                49.1815

                     31                     32                     33
                      A                      A                      A
 Frequencies --   3047.7009              3048.9503              3062.3913
 Red. masses --      1.0367                 1.0408                 1.0847
 Frc consts  --      5.6736                 5.7006                 5.9937
 IR Inten    --     26.6280                21.9150                11.1711

                     34                     35                     36
                      A                      A                      A
 Frequencies --   3078.8504              3132.8947              3136.8673
 Red. masses --      1.1015                 1.1001                 1.1001
 Frc consts  --      6.1522                 6.3617                 6.3779
 IR Inten    --     50.3438                11.5432                57.0993

                     37                     38                     39
                      A                      A                      A
 Frequencies --   3148.1647              3168.8152              3830.3210
 Red. masses --      1.1011                 1.1002                 1.0668
 Frc consts  --      6.4296                 6.5092                 9.2219
 IR Inten    --     29.6927                14.8422                35.5967

 - Thermochemistry -
 -------------------
 Temperature   298.150 Kelvin.  Pressure   1.00000 Atm.
 Atom     1 has atomic number  8 and mass  15.99491

 Molecular mass:    74.07317 amu.
 Principal axes and moments of inertia in atomic units:
                           1         2         3
     Eigenvalues --   238.04327 512.69457 678.57902
           X            0.99992   0.00867  -0.00881
           Y           -0.00868   0.99996  -0.00057
           Z            0.00880   0.00065   0.99996
 This molecule is an asymmetric top.
 Rotational symmetry number  1.
 Rotational temperatures (Kelvin)      0.36386     0.16894     0.12764
 Rotational constants (GHZ):           7.58157     3.52011     2.65959
 Zero-point vibrational energy     359515.2 (Joules/Mol)
                                   85.92621 (Kcal/Mol)
 Warning -- explicit consideration of   8 degrees of freedom as
           vibrations may cause significant error
 Vibrational temperatures:    173.68   314.06   353.74   368.30   388.05
          (Kelvin)            508.05   604.96   698.17  1194.89  1320.98
                             1328.15  1378.85  1410.90  1525.85  1623.92
                             1690.06  1717.13  1806.10  1830.53  1907.25
                             1955.41  1994.78  2012.54  2070.11  2124.54
                             2130.98  2148.41  2163.37  2169.03  4338.61
                             4384.96  4386.76  4406.10  4429.78  4507.54
                             4513.25  4529.51  4559.22  5510.98

 Zero-point correction=                           0.136932 (Hartree/Particle)
 Thermal correction to Energy=                    0.143738
 Thermal correction to Enthalpy=                  0.144682
 Thermal correction to Gibbs Free Energy=         0.107298
 Sum of electronic and zero-point Energies=           -232.855291
 Sum of electronic and thermal Energies=              -232.848485
 Sum of electronic and thermal Enthalpies=            -232.847541
 Sum of electronic and thermal Free Energies=         -232.884925

                     E (Thermal)             CV                S
                      KCal/Mol        Cal/Mol-Kelvin    Cal/Mol-Kelvin
 Total                   90.197             23.896             78.682
 Electronic               0.000              0.000              0.000
 Translational            0.889              2.981             38.823
 Rotational               0.889              2.981             25.918
 Vibrational             88.419             17.935             13.941
 Vibration     1          0.609              1.932              3.089
 Vibration     2          0.646              1.813              1.973
 Vibration     3          0.660              1.770              1.760
 Vibration     4          0.666              1.753              1.689
 Vibration     5          0.674              1.729              1.598
 Vibration     6          0.729              1.569              1.152
 Vibration     7          0.783              1.426              0.890
 Vibration     8          0.841              1.283              0.696

                           ! Non-Optimized Parameters !

 1\1\GINC-N2108\Freq\RMP2-FC\Aug-CC-pVDZ\C4H10O1\GDS001\08-Feb-2022\0\\
 #N Geom=AllCheck Guess=TCheck SCRF=Check GenChk RMP2(FC)/Aug-CC-pVDZ F
 req\\H Me Ref Open\\0,1\O,-1.4804482101,-0.7035597678,-0.0563956665\C,
 -0.8360349751,0.5117671035,0.3670981679\H,-2.3638558938,-0.7267278835,
 0.3346982636\C,0.5605158023,0.5525514761,-0.2452275667\H,-0.7647281251
 ,0.5446950536,1.4702273692\H,-1.4124197298,1.3950272153,0.0280387309\H
 ,1.090574732,-0.3568351187,0.0915716001\C,1.3121587657,1.7874937933,0.
 2685943214\C,0.4879877422,0.545696965,-1.7765005092\H,1.4988715119,0.5

 Normal termination of Gaussian 16 at Tue Feb  8 12:59:06 2022.
