 Gaussian 16, Revision A.03,
 Gaussian 16:  ES64L-G16RevA.03 25-Dec-2016

 --------------------------
 # MP2/aug-cc-pVDZ opt freq
 --------------------------

 ------------
 Me Me Closed
 ------------
 Symbolic Z-matrix:
 Charge =  0 Multiplicity = 1

 SCF Done:  E(RHF) =  -365.296648527     A.U. after   13 cycles
 E2 =    -0.1304604283D+01 EUMP2 =    -0.36660125280970D+03
 SCF Done:  E(RHF) =  -365.296086213     A.U. after   11 cycles
 E2 =    -0.1307906291D+01 EUMP2 =    -0.36660399250455D+03
 SCF Done:  E(RHF) =  -365.297850847     A.U. after   11 cycles
 E2 =    -0.1307090939D+01 EUMP2 =    -0.36660494178549D+03
 SCF Done:  E(RHF) =  -365.297856151     A.U. after   11 cycles
 E2 =    -0.1307052164D+01 EUMP2 =    -0.36660490831574D+03
 SCF Done:  E(RHF) =  -365.298351676     A.U. after   11 cycles
 E2 =    -0.1306685523D+01 EUMP2 =    -0.36660503719838D+03
 SCF Done:  E(RHF) =  -365.298230007     A.U. after   10 cycles
 E2 =    -0.1306894145D+01 EUMP2 =    -0.36660512415261D+03
 SCF Done:  E(RHF) =  -365.298200804     A.U. after    9 cycles
 E2 =    -0.1306926520D+01 EUMP2 =    -0.36660512732387D+03
 SCF Done:  E(RHF) =  -365.298201060     A.U. after    8 cycles
 E2 =    -0.1306926821D+01 EUMP2 =    -0.36660512788132D+03
 SCF Done:  E(RHF) =  -365.298205753     A.U. after    7 cycles
 E2 =    -0.1306922172D+01 EUMP2 =    -0.36660512792435D+03
 Optimization completed.
    -- Stationary point found.
 Normal termination of Gaussian 16 at Tue Feb  8 13:26:27 2022.

 ----------------------------------------------------------------------
 #N Geom=AllCheck Guess=TCheck SCRF=Check GenChk RMP2(FC)/Aug-CC-pVDZ F
 req
 ----------------------------------------------------------------------

 Structure from the checkpoint file:  "/gscratch/scrubbed/gds001/Gau-23775.chk"
 ------------
 Me Me Closed
 ------------
 Charge =  0 Multiplicity = 1

                         Standard orientation:
 ---------------------------------------------------------------------
 Center     Atomic      Atomic             Coordinates (Angstroms)
 Number     Number       Type             X           Y           Z
 ---------------------------------------------------------------------
      1          8           0       -1.153694    0.381751   -1.388935
      2          6           0       -0.793515    0.030714   -0.039892
      3          1           0       -0.519629   -0.119515   -1.937603
      4          6           0        0.771164   -0.019766    0.044509
      5          6           0       -1.421637   -1.330814    0.299640
      6          6           0       -1.409776    1.113366    0.846922
      7          7           0        1.200403   -0.896373   -1.078413
      8          6           0        1.269966   -0.545942    1.399713
      9          6           0        1.371394    1.368149   -0.216828
     10          1           0        1.146705   -1.879470   -0.805413
     11          1           0        2.180722   -0.716644   -1.301468
     12          1           0       -1.073815    2.112515    0.537291
     13          1           0       -1.163593    0.956282    1.908507
     14          1           0       -2.505025    1.077480    0.738829
     15          1           0       -0.993959   -2.138436   -0.316106
     16          1           0       -2.497821   -1.278273    0.075951
     17          1           0       -1.299086   -1.588885    1.363442
     18          1           0        2.466381    1.283838   -0.326549
     19          1           0        1.176794    2.044992    0.627819
     20          1           0        0.954028    1.810679   -1.132898
     21          1           0        2.372113   -0.508173    1.423642
     22          1           0        0.964336   -1.591323    1.562286
     23          1           0        0.893005    0.061296    2.238245
 ---------------------------------------------------------------------

 SCF Done:  E(RHF) =  -365.298205753     A.U. after    1 cycles
 E2 =    -0.1306922177D+01 EUMP2 =    -0.36660512792974D+03
 E2 =    -0.1306922177D+01 EUMP2 =    -0.36660512792974D+03

 The electronic state is 1-A.
 Alpha  occ. eigenvalues --  -20.54109 -15.56104 -11.28381 -11.27333 -11.23040
 Alpha  occ. eigenvalues --  -11.22330 -11.21879 -11.21650  -1.34310  -1.19650
 Alpha  occ. eigenvalues --   -1.05580  -0.99995  -0.94511  -0.92268  -0.83325
 Alpha  occ. eigenvalues --   -0.73377  -0.68438  -0.64471  -0.62910  -0.62130
 Alpha  occ. eigenvalues --   -0.59617  -0.56504  -0.55364  -0.54294  -0.52735
 Alpha  occ. eigenvalues --   -0.52522  -0.51590  -0.50995  -0.49176  -0.47927
 Alpha  occ. eigenvalues --   -0.44599  -0.41972  -0.40038
 Alpha virt. eigenvalues --    0.03192   0.04242   0.04381   0.04861   0.06150
 Alpha virt. eigenvalues --    0.06288   0.06474   0.06646   0.07049   0.08618
 Alpha virt. eigenvalues --    0.09181   0.09337   0.09542   0.09783   0.11073

 Mulliken charges:
               1
     1  O   -0.885263
     2  C   -1.150736
     3  H    0.188849
     4  C   -2.141716
     5  C    0.836014
     6  C    0.960334
     7  N   -0.369340
     8  C    1.267872
     9  C    1.108335
    10  H    0.062548
    11  H    0.015139
    12  H    0.022417
    13  H    0.049643
    14  H    0.053968
    15  H   -0.034102
    16  H   -0.011392
    17  H    0.048212
    18  H   -0.092510
    19  H   -0.005411
    20  H    0.073544
    21  H    0.041114
    22  H   -0.070024
    23  H    0.032505
 Sum of Mulliken charges =  -0.00000

 Dipole moment (field-independent basis, Debye):
    X=              2.2767    Y=             -1.2227    Z=              1.6563  Tot=              3.0695
 Quadrupole moment (field-independent basis, Debye-Ang):
   XX=            -52.7220   YY=            -51.9047   ZZ=            -55.5339
   XY=              0.0374   XZ=             -3.6822   YZ=              1.6651

  Exact polarizability:  93.410   0.292  88.450  -0.978   0.238  86.890
 Approx polarizability:  75.993  -0.681  75.268  -0.723   0.339  76.039

                      1                      2                      3
                      A                      A                      A
 Frequencies --     89.1513               201.6152               242.2888
 Red. masses --      2.5835                 1.0395                 1.3367
 Frc consts  --      0.0121                 0.0249                 0.0462
 IR Inten    --      1.5991                 0.5791                 2.5317

                      4                      5                      6
                      A                      A                      A
 Frequencies --    252.5728               271.3215               278.8305
 Red. masses --      1.1820                 1.5117                 1.1717
 Frc consts  --      0.0444                 0.0656                 0.0537
 IR Inten    --      1.1381                 4.0143                 4.2106

                      7                      8                      9
                      A                      A                      A
 Frequencies --    293.9663               308.7822               359.7751
 Red. masses --      2.0599                 1.5988                 2.4422
 Frc consts  --      0.1049                 0.0898                 0.1863
 IR Inten    --      2.5130                 2.4710                 7.3361

                     10                     11                     12
                      A                      A                      A
 Frequencies --    369.3922               385.9297               390.8261
 Red. masses --      2.2489                 1.9159                 2.3684
 Frc consts  --      0.1808                 0.1681                 0.2131
 IR Inten    --      1.1286                 0.3150                 0.7217

                     13                     14                     15
                      A                      A                      A
 Frequencies --    414.6404               482.8355               511.2418
 Red. masses --      2.6206                 2.3293                 3.0016
 Frc consts  --      0.2655                 0.3199                 0.4622
 IR Inten    --      6.6457                 1.3793                 3.0928

                     16                     17                     18
                      A                      A                      A
 Frequencies --    535.8379               614.0282               674.3003
 Red. masses --      2.6717                 1.1528                 3.0546
 Frc consts  --      0.4520                 0.2561                 0.8183
 IR Inten    --     11.3238               104.0686                 2.7882

                     19                     20                     21
                      A                      A                      A
 Frequencies --    830.0673               879.7754               916.8282
 Red. masses --      2.6867                 1.8340                 1.4018
 Frc consts  --      1.0907                 0.8364                 0.6942
 IR Inten    --     29.6782                67.5458                17.1865

                     22                     23                     24
                      A                      A                      A
 Frequencies --    929.3882               942.9519               970.6282
 Red. masses --      1.4309                 1.4374                 1.8407
 Frc consts  --      0.7282                 0.7530                 1.0217
 IR Inten    --      0.9574                 2.6961                15.1525

                     25                     26                     27
                      A                      A                      A
 Frequencies --    974.9077               997.9233              1018.3029
 Red. masses --      1.8294                 1.2925                 1.3302
 Frc consts  --      1.0244                 0.7583                 0.8127
 IR Inten    --      6.8974                 0.7324                 6.7057

                     28                     29                     30
                      A                      A                      A
 Frequencies --   1081.4370              1141.1525              1182.3103
 Red. masses --      1.4473                 1.8399                 2.4601
 Frc consts  --      0.9973                 1.4117                 2.0261
 IR Inten    --      2.4418                12.2699                69.1979

                     31                     32                     33
                      A                      A                      A
 Frequencies --   1212.3649              1235.3886              1257.9061
 Red. masses --      2.6695                 2.7641                 2.8436
 Frc consts  --      2.3118                 2.4854                 2.6511
 IR Inten    --     24.4481                13.8211                11.7852

                     34                     35                     36
                      A                      A                      A
 Frequencies --   1332.2328              1368.2110              1381.2470
 Red. masses --      1.8428                 1.2903                 1.4271
 Frc consts  --      1.9270                 1.4232                 1.6042
 IR Inten    --      1.1779                17.2356                 6.2166

                     37                     38                     39
                      A                      A                      A
 Frequencies --   1382.1374              1399.6226              1411.6397
 Red. masses --      1.3203                 1.2784                 1.5476
 Frc consts  --      1.4860                 1.4755                 1.8170
 IR Inten    --     29.0792                20.5681                46.7145

                     40                     41                     42
                      A                      A                      A
 Frequencies --   1463.8335              1475.2906              1476.6801
 Red. masses --      1.0486                 1.0524                 1.0488
 Frc consts  --      1.3238                 1.3495                 1.3475
 IR Inten    --      0.1999                 0.0790                 1.4210

                     43                     44                     45
                      A                      A                      A
 Frequencies --   1485.6499              1494.3778              1497.1095
 Red. masses --      1.0638                 1.0712                 1.0519
 Frc consts  --      1.3833                 1.4094                 1.3891
 IR Inten    --      1.1551                 5.9716                 6.9976

                     46                     47                     48
                      A                      A                      A
 Frequencies --   1505.2800              1511.3363              1629.4615
 Red. masses --      1.0651                 1.0674                 1.0922
 Frc consts  --      1.4219                 1.4365                 1.7086
 IR Inten    --     11.5800                 0.8791                41.5944

                     49                     50                     51
                      A                      A                      A
 Frequencies --   3048.1961              3054.7421              3056.5299
 Red. masses --      1.0357                 1.0384                 1.0358
 Frc consts  --      5.6700                 5.7089                 5.7014
 IR Inten    --     14.3485                33.4956                13.0996

                     52                     53                     54
                      A                      A                      A
 Frequencies --   3067.8954              3135.4926              3141.8933
 Red. masses --      1.0362                 1.1006                 1.0978
 Frc consts  --      5.7462                 6.3749                 6.3852
 IR Inten    --     13.7250                14.0625                20.8536

                     55                     56                     57
                      A                      A                      A
 Frequencies --   3147.0246              3150.5483              3156.3734
 Red. masses --      1.1011                 1.1010                 1.1007
 Frc consts  --      6.4253                 6.4391                 6.4608
 IR Inten    --     38.8609                17.6482                10.5629

                     58                     59                     60
                      A                      A                      A
 Frequencies --   3159.7030              3173.5532              3179.0570
 Red. masses --      1.1006                 1.1021                 1.1013
 Frc consts  --      6.4741                 6.5395                 6.5578
 IR Inten    --     29.3433                20.7236                 9.1012

                     61                     62                     63
                      A                      A                      A
 Frequencies --   3486.9209              3585.7254              3649.9042
 Red. masses --      1.0502                 1.0921                 1.0645
 Frc consts  --      7.5236                 8.2728                 8.3555
 IR Inten    --      0.4492                 2.4159                90.3605

 - Thermochemistry -
 -------------------
 Temperature   298.150 Kelvin.  Pressure   1.00000 Atm.
 Atom     1 has atomic number  8 and mass  15.99491

 Molecular mass:   117.11536 amu.
 Principal axes and moments of inertia in atomic units:
                           1         2         3
     Eigenvalues --   756.346991039.025231048.74286
           X            0.99882   0.03493  -0.03367
           Y           -0.02849   0.98402   0.17574
           Z            0.03927  -0.17458   0.98386
 This molecule is an asymmetric top.
 Rotational symmetry number  1.
 Warning -- assumption of classical behavior for rotation
           may cause significant error
 Rotational temperatures (Kelvin)      0.11452     0.08336     0.08259
 Rotational constants (GHZ):           2.38613     1.73696     1.72086
 Zero-point vibrational energy     551815.4 (Joules/Mol)
                                  131.88706 (Kcal/Mol)
 Warning -- explicit consideration of  17 degrees of freedom as
           vibrations may cause significant error
 Vibrational temperatures:    128.27   290.08   348.60   363.40   390.37
          (Kelvin)            401.17   422.95   444.27   517.64   531.47
                              555.27   562.31   596.58   694.69   735.56
                              770.95   883.45   970.17  1194.28  1265.80
                             1319.11  1337.18  1356.70  1396.52  1402.67
                             1435.79  1465.11  1555.95  1641.86  1701.08
                             1744.32  1777.45  1809.85  1916.79  1968.55
                             1987.31  1988.59  2013.74  2031.03  2106.13
                             2122.61  2124.61  2137.52  2150.08  2154.01
                             2165.76  2174.48  2344.43  4385.67  4395.09
                             4397.66  4414.02  4511.27  4520.48  4527.87
                             4532.94  4541.32  4546.11  4566.04  4573.95
                             5016.90  5159.06  5251.40

 Zero-point correction=                           0.210175 (Hartree/Particle)
 Thermal correction to Energy=                    0.220229
 Thermal correction to Enthalpy=                  0.221173
 Thermal correction to Gibbs Free Energy=         0.176972
 Sum of electronic and zero-point Energies=           -366.394953
 Sum of electronic and thermal Energies=              -366.384899
 Sum of electronic and thermal Enthalpies=            -366.383955
 Sum of electronic and thermal Free Energies=         -366.428156

                     E (Thermal)             CV                S
                      KCal/Mol        Cal/Mol-Kelvin    Cal/Mol-Kelvin
 Total                  138.196             39.887             93.028
 Electronic               0.000              0.000              0.000
 Translational            0.889              2.981             40.189
 Rotational               0.889              2.981             28.201
 Vibrational            136.418             33.926             24.638
 Vibration     1          0.602              1.957              3.679
 Vibration     2          0.639              1.838              2.118
 Vibration     3          0.658              1.775              1.786
 Vibration     4          0.664              1.758              1.713
 Vibration     5          0.675              1.726              1.588
 Vibration     6          0.679              1.713              1.541
 Vibration     7          0.689              1.685              1.451
 Vibration     8          0.698              1.657              1.369
 Vibration     9          0.734              1.555              1.123
 Vibration    10          0.742              1.535              1.082
 Vibration    11          0.755              1.500              1.016
 Vibration    12          0.759              1.490              0.997
 Vibration    13          0.778              1.438              0.910
 Vibration    14          0.839              1.288              0.702
 Vibration    15          0.866              1.225              0.631
 Vibration    16          0.891              1.171              0.574
 Vibration    17          0.973              1.002              0.426

 Optimization completed.
    -- Stationary point found.
 Normal termination of Gaussian 16 at Tue Feb  8 14:19:30 2022.
