 Gaussian 16, Revision A.03,
 Gaussian 16:  ES64L-G16RevA.03 25-Dec-2016

 --------------------------
 # MP2/aug-cc-pVDZ opt freq
 --------------------------

 ----------
 Me Me Open
 ----------
 Symbolic Z-matrix:
 Charge =  0 Multiplicity = 1

 SCF Done:  E(RHF) =  -365.286828360     A.U. after   13 cycles
 E2 =    -0.1302090471D+01 EUMP2 =    -0.36658891883145D+03
 SCF Done:  E(RHF) =  -365.286927998     A.U. after   11 cycles
 E2 =    -0.1306746088D+01 EUMP2 =    -0.36659367408634D+03
 SCF Done:  E(RHF) =  -365.289457912     A.U. after   12 cycles
 E2 =    -0.1305764281D+01 EUMP2 =    -0.36659522219315D+03
 SCF Done:  E(RHF) =  -365.289846571     A.U. after   11 cycles
 E2 =    -0.1305638185D+01 EUMP2 =    -0.36659548475512D+03
 SCF Done:  E(RHF) =  -365.289829407     A.U. after   11 cycles
 E2 =    -0.1305880945D+01 EUMP2 =    -0.36659571035166D+03
 SCF Done:  E(RHF) =  -365.289850071     A.U. after   11 cycles
 E2 =    -0.1305927925D+01 EUMP2 =    -0.36659577799596D+03
 SCF Done:  E(RHF) =  -365.289837786     A.U. after    9 cycles
 E2 =    -0.1305950287D+01 EUMP2 =    -0.36659578807379D+03
 SCF Done:  E(RHF) =  -365.289864109     A.U. after    8 cycles
 E2 =    -0.1305927154D+01 EUMP2 =    -0.36659579126353D+03
 SCF Done:  E(RHF) =  -365.289884306     A.U. after    8 cycles
 E2 =    -0.1305907507D+01 EUMP2 =    -0.36659579181321D+03
 SCF Done:  E(RHF) =  -365.289893503     A.U. after    8 cycles
 E2 =    -0.1305898505D+01 EUMP2 =    -0.36659579200804D+03
 SCF Done:  E(RHF) =  -365.289895445     A.U. after    7 cycles
 E2 =    -0.1305896682D+01 EUMP2 =    -0.36659579212645D+03
 SCF Done:  E(RHF) =  -365.289896689     A.U. after    7 cycles
 E2 =    -0.1305895537D+01 EUMP2 =    -0.36659579222644D+03
 SCF Done:  E(RHF) =  -365.289892065     A.U. after    7 cycles
 E2 =    -0.1305900230D+01 EUMP2 =    -0.36659579229427D+03
 Optimization completed.
    -- Stationary point found.
 Normal termination of Gaussian 16 at Tue Feb  8 13:43:23 2022.

 ----------------------------------------------------------------------
 #N Geom=AllCheck Guess=TCheck SCRF=Check GenChk RMP2(FC)/Aug-CC-pVDZ F
 req
 ----------------------------------------------------------------------

 Structure from the checkpoint file:  "/gscratch/scrubbed/gds001/Gau-9524.chk"
 ----------
 Me Me Open
 ----------
 Charge =  0 Multiplicity = 1

                         Standard orientation:
 ---------------------------------------------------------------------
 Center     Atomic      Atomic             Coordinates (Angstroms)
 Number     Number       Type             X           Y           Z
 ---------------------------------------------------------------------
      1          8           0        1.114449   -0.408793   -1.391414
      2          6           0        0.781339   -0.023331   -0.037883
      3          1           0        2.066909   -0.270058   -1.500506
      4          6           0       -0.779710    0.030099    0.010343
      5          6           0        1.402058    1.348173    0.258949
      6          6           0        1.358126   -1.069237    0.928369
      7          7           0       -1.222668    1.235170   -0.729304
      8          6           0       -1.282072    0.046491    1.468259
      9          6           0       -1.383675   -1.181489   -0.713555
     10          1           0       -1.149690    2.061106   -0.130284
     11          1           0       -2.218442    1.139495   -0.941512
     12          1           0        0.893718   -2.055333    0.779973
     13          1           0        1.233176   -0.766166    1.979400
     14          1           0        2.439039   -1.173111    0.736342
     15          1           0        1.115598    2.065991   -0.521797
     16          1           0        2.502393    1.260240    0.270881
     17          1           0        1.095535    1.731313    1.245721
     18          1           0       -2.481162   -1.163502   -0.595967
     19          1           0       -1.016989   -2.128677   -0.291443
     20          1           0       -1.134719   -1.149671   -1.782181
     21          1           0       -2.373623    0.199897    1.463352
     22          1           0       -0.829092    0.869045    2.046775
     23          1           0       -1.075961   -0.900643    1.990792
 ---------------------------------------------------------------------

 SCF Done:  E(RHF) =  -365.289892065     A.U. after    1 cycles
 E2 =    -0.1305900227D+01 EUMP2 =    -0.36659579229198D+03
 E2 =    -0.1305900227D+01 EUMP2 =    -0.36659579229198D+03

 The electronic state is 1-A.
 Alpha  occ. eigenvalues --  -20.55493 -15.54217 -11.28866 -11.26550 -11.22386
 Alpha  occ. eigenvalues --  -11.22324 -11.22290 -11.21202  -1.35103  -1.18578
 Alpha  occ. eigenvalues --   -1.05172  -0.99698  -0.93471  -0.92787  -0.83868
 Alpha  occ. eigenvalues --   -0.72259  -0.66753  -0.65875  -0.62527  -0.61389
 Alpha  occ. eigenvalues --   -0.59398  -0.56810  -0.55630  -0.53783  -0.52722
 Alpha  occ. eigenvalues --   -0.52581  -0.51626  -0.50062  -0.49183  -0.47510
 Alpha  occ. eigenvalues --   -0.43971  -0.42646  -0.38453
 Alpha virt. eigenvalues --    0.03439   0.04012   0.04532   0.04869   0.06116
 Alpha virt. eigenvalues --    0.06221   0.06358   0.06853   0.06953   0.08736
 Alpha virt. eigenvalues --    0.08968   0.09027   0.09593   0.09694   0.10866

 Mulliken charges:
               1
     1  O   -0.832304
     2  C   -1.094920
     3  H    0.107911
     4  C   -2.342497
     5  C    0.956380
     6  C    0.925765
     7  N   -0.203541
     8  C    1.200542
     9  C    1.125013
    10  H    0.014162
    11  H   -0.012374
    12  H    0.016041
    13  H    0.117840
    14  H   -0.068730
    15  H    0.123880
    16  H   -0.058484
    17  H   -0.027069
    18  H    0.008596
    19  H   -0.044598
    20  H    0.091361
    21  H   -0.024333
    22  H   -0.007889
    23  H    0.029246
 Sum of Mulliken charges =  -0.00000

 Dipole moment (field-independent basis, Debye):
    X=              0.2759    Y=              0.4251    Z=              2.1462  Tot=              2.2052
 Quadrupole moment (field-independent basis, Debye-Ang):
   XX=            -46.6294   YY=            -53.0212   ZZ=            -57.4838
   XY=             -0.6079   XZ=             -0.8545   YZ=              0.9310

  Exact polarizability:  94.579   0.393  88.339   0.340  -0.384  87.310
 Approx polarizability:  77.155  -0.075  75.137  -0.038   0.403  75.544

                      1                      2                      3
                      A                      A                      A
 Frequencies --    102.7279               208.6712               220.0502
 Red. masses --      2.8886                 1.0934                 1.0528
 Frc consts  --      0.0180                 0.0281                 0.0300
 IR Inten    --      0.2691                75.4547                19.0472

                      4                      5                      6
                      A                      A                      A
 Frequencies --    254.4705               258.9743               272.8544
 Red. masses --      1.0707                 1.1969                 1.5752
 Frc consts  --      0.0408                 0.0473                 0.0691
 IR Inten    --      0.3368                 9.1423                18.5718

                      7                      8                      9
                      A                      A                      A
 Frequencies --    286.3216               308.1233               311.6248
 Red. masses --      1.7531                 1.4673                 1.6953
 Frc consts  --      0.0847                 0.0821                 0.0970
 IR Inten    --      8.8608                 9.5876                 1.3079

                     10                     11                     12
                      A                      A                      A
 Frequencies --    361.6474               374.3207               389.4406
 Red. masses --      2.0771                 2.1290                 2.2568
 Frc consts  --      0.1601                 0.1758                 0.2017
 IR Inten    --      1.9952                 2.3187                 1.7011

                     13                     14                     15
                      A                      A                      A
 Frequencies --    398.0509               411.4881               485.6588
 Red. masses --      2.5135                 2.6214                 2.4794
 Frc consts  --      0.2346                 0.2615                 0.3446
 IR Inten    --      1.4686                 5.4215                 1.8475

                     16                     17                     18
                      A                      A                      A
 Frequencies --    506.8375               528.8548               676.1283
 Red. masses --      2.9515                 2.7889                 3.0164
 Frc consts  --      0.4467                 0.4596                 0.8124
 IR Inten    --      2.6859                12.1682                 0.3253

                     19                     20                     21
                      A                      A                      A
 Frequencies --    826.2608               876.3769               922.4167
 Red. masses --      2.6747                 1.7251                 1.4642
 Frc consts  --      1.0759                 0.7807                 0.7340
 IR Inten    --     25.3118               105.0415                 0.3976

                     22                     23                     24
                      A                      A                      A
 Frequencies --    923.3112               938.9557               965.0101
 Red. masses --      1.4780                 1.4600                 1.9434
 Frc consts  --      0.7424                 0.7584                 1.0663
 IR Inten    --      7.0776                 3.4516                 8.6369

                     25                     26                     27
                      A                      A                      A
 Frequencies --    977.4258              1003.9024              1020.0074
 Red. masses --      1.7211                 1.2764                 1.3171
 Frc consts  --      0.9688                 0.7579                 0.8074
 IR Inten    --      0.4100                 0.2849                 1.2480

                     28                     29                     30
                      A                      A                      A
 Frequencies --   1082.4968              1118.6489              1195.9476
 Red. masses --      1.5135                 1.4725                 2.5378
 Frc consts  --      1.0450                 1.0856                 2.1386
 IR Inten    --     26.2347                65.6141                14.1101

                     31                     32                     33
                      A                      A                      A
 Frequencies --   1201.0172              1228.6342              1259.5564
 Red. masses --      2.9057                 2.9610                 2.6711
 Frc consts  --      2.4695                 2.6335                 2.4967
 IR Inten    --     25.2848                 6.1245                 8.9752

                     34                     35                     36
                      A                      A                      A
 Frequencies --   1309.5932              1366.0732              1377.2658
 Red. masses --      1.7334                 1.4339                 1.3194
 Frc consts  --      1.7515                 1.5765                 1.4746
 IR Inten    --     12.6954                16.3840                22.7417

                     37                     38                     39
                      A                      A                      A
 Frequencies --   1384.0430              1388.6147              1401.6702
 Red. masses --      1.8201                 1.3073                 1.2388
 Frc consts  --      2.0542                 1.4852                 1.4340
 IR Inten    --      4.1831                18.6080                 5.8667

                     40                     41                     42
                      A                      A                      A
 Frequencies --   1467.4852              1475.7937              1477.3831
 Red. masses --      1.0514                 1.0477                 1.0472
 Frc consts  --      1.3340                 1.3444                 1.3467
 IR Inten    --      0.6138                 0.4848                 1.6106

                     43                     44                     45
                      A                      A                      A
 Frequencies --   1483.8421              1492.4757              1496.2716
 Red. masses --      1.0563                 1.0516                 1.0534
 Frc consts  --      1.3703                 1.3801                 1.3895
 IR Inten    --      2.1122                 7.6395                 4.3174

                     46                     47                     48
                      A                      A                      A
 Frequencies --   1505.7108              1513.1665              1636.9421
 Red. masses --      1.0540                 1.1065                 1.0920
 Frc consts  --      1.4079                 1.4926                 1.7239
 IR Inten    --     10.4974                 4.5584                31.9190

                     49                     50                     51
                      A                      A                      A
 Frequencies --   3045.9253              3050.5986              3054.8431
 Red. masses --      1.0360                 1.0373                 1.0382
 Frc consts  --      5.6629                 5.6874                 5.7085
 IR Inten    --     14.6802                20.1525                37.0415

                     52                     53                     54
                      A                      A                      A
 Frequencies --   3058.3995              3129.5241              3136.9858
 Red. masses --      1.0388                 1.0995                 1.1006
 Frc consts  --      5.7251                 6.3445                 6.3810
 IR Inten    --     11.6581                15.7350                21.3359

                     55                     56                     57
                      A                      A                      A
 Frequencies --   3141.4624              3144.6209              3150.0070
 Red. masses --      1.0998                 1.0977                 1.0989
 Frc consts  --      6.3950                 6.3952                 6.4246
 IR Inten    --     42.1354                19.1780                33.0063

                     58                     59                     60
                      A                      A                      A
 Frequencies --   3166.7137              3176.7208              3188.9399
 Red. masses --      1.1014                 1.1010                 1.1012
 Frc consts  --      6.5076                 6.5463                 6.5982
 IR Inten    --     19.7652                 8.9683                 9.4812

                     61                     62                     63
                      A                      A                      A
 Frequencies --   3470.3915              3568.5014              3791.7000
 Red. masses --      1.0502                 1.0915                 1.0664
 Frc consts  --      7.4525                 8.1896                 9.0328
 IR Inten    --      2.2536                 0.4205                17.1925

 - Thermochemistry -
 -------------------
 Temperature   298.150 Kelvin.  Pressure   1.00000 Atm.
 Atom     1 has atomic number  8 and mass  15.99491

 Molecular mass:   117.11536 amu.
 Principal axes and moments of inertia in atomic units:
                           1         2         3
     Eigenvalues --   755.421811047.078741049.19529
           X            0.99930   0.01909   0.03222
           Y           -0.02899   0.93897   0.34277
           Z           -0.02371  -0.34346   0.93887
 This molecule is an asymmetric top.
 Rotational symmetry number  1.
 Warning -- assumption of classical behavior for rotation
           may cause significant error
 Rotational temperatures (Kelvin)      0.11466     0.08272     0.08255
 Rotational constants (GHZ):           2.38905     1.72360     1.72012
 Zero-point vibrational energy     549970.4 (Joules/Mol)
                                  131.44609 (Kcal/Mol)
 Warning -- explicit consideration of  17 degrees of freedom as
           vibrations may cause significant error
 Vibrational temperatures:    147.80   300.23   316.60   366.13   372.61
          (Kelvin)            392.58   411.95   443.32   448.36   520.33
                              538.56   560.32   572.71   592.04   698.75
                              729.23   760.90   972.80  1188.80  1260.91
                             1327.15  1328.44  1350.95  1388.43  1406.30
                             1444.39  1467.56  1557.47  1609.49  1720.70
                             1728.00  1767.73  1812.22  1884.21  1965.47
                             1981.58  1991.33  1997.91  2016.69  2111.38
                             2123.34  2125.62  2134.92  2147.34  2152.80
                             2166.38  2177.11  2355.19  4382.41  4389.13
                             4395.24  4400.35  4502.69  4513.42  4519.86
                             4524.41  4532.16  4556.19  4570.59  4588.17
                             4993.12  5134.28  5455.41

 Zero-point correction=                           0.209473 (Hartree/Particle)
 Thermal correction to Energy=                    0.219803
 Thermal correction to Enthalpy=                  0.220747
 Thermal correction to Gibbs Free Energy=         0.176122
 Sum of electronic and zero-point Energies=           -366.386320
 Sum of electronic and thermal Energies=              -366.375989
 Sum of electronic and thermal Enthalpies=            -366.375045
 Sum of electronic and thermal Free Energies=         -366.419670

                     E (Thermal)             CV                S
                      KCal/Mol        Cal/Mol-Kelvin    Cal/Mol-Kelvin
 Total                  137.928             40.629             93.922
 Electronic               0.000              0.000              0.000
 Translational            0.889              2.981             40.189
 Rotational               0.889              2.981             28.208
 Vibrational            136.151             34.667             25.524
 Vibration     1          0.605              1.947              3.402
 Vibration     2          0.642              1.827              2.055
 Vibration     3          0.647              1.811              1.959
 Vibration     4          0.665              1.755              1.699
 Vibration     5          0.668              1.748              1.669
 Vibration     6          0.676              1.723              1.578
 Vibration     7          0.684              1.699              1.496
 Vibration     8          0.698              1.658              1.372
 Vibration     9          0.700              1.652              1.354
 Vibration    10          0.736              1.551              1.115
 Vibration    11          0.745              1.525              1.062
 Vibration    12          0.757              1.493              1.002
 Vibration    13          0.764              1.474              0.970
 Vibration    14          0.775              1.445              0.921
 Vibration    15          0.842              1.282              0.695
 Vibration    16          0.862              1.235              0.641
 Vibration    17          0.884              1.186              0.590

 Optimization completed.
    -- Stationary point found.
 Normal termination of Gaussian 16 at Tue Feb  8 14:35:09 2022.
