 Gaussian 16, Revision A.03,
 Gaussian 16:  ES64L-G16RevA.03 25-Dec-2016

 --------------------------
 # MP2/aug-cc-pVDZ opt freq
 --------------------------

 ----------------
 Me Me Ref Closed
 ----------------
 Symbolic Z-matrix:
 Charge =  0 Multiplicity = 1

 SCF Done:  E(RHF) =  -310.260667974     A.U. after   13 cycles
 E2 =    -0.1116925803D+01 EUMP2 =    -0.31137759377680D+03
 SCF Done:  E(RHF) =  -310.259559971     A.U. after   11 cycles
 E2 =    -0.1119761684D+01 EUMP2 =    -0.31137932165503D+03
 SCF Done:  E(RHF) =  -310.260232747     A.U. after   11 cycles
 E2 =    -0.1119446733D+01 EUMP2 =    -0.31137967947968D+03
 SCF Done:  E(RHF) =  -310.260211099     A.U. after   11 cycles
 E2 =    -0.1119534712D+01 EUMP2 =    -0.31137974581097D+03
 SCF Done:  E(RHF) =  -310.260197245     A.U. after    9 cycles
 E2 =    -0.1119580461D+01 EUMP2 =    -0.31137977770661D+03
 SCF Done:  E(RHF) =  -310.260249415     A.U. after    9 cycles
 E2 =    -0.1119540712D+01 EUMP2 =    -0.31137979012670D+03
 SCF Done:  E(RHF) =  -310.260237424     A.U. after    9 cycles
 E2 =    -0.1119555260D+01 EUMP2 =    -0.31137979268468D+03
 SCF Done:  E(RHF) =  -310.260244102     A.U. after    8 cycles
 E2 =    -0.1119549599D+01 EUMP2 =    -0.31137979370027D+03
 SCF Done:  E(RHF) =  -310.260250204     A.U. after    8 cycles
 E2 =    -0.1119543975D+01 EUMP2 =    -0.31137979417860D+03
 SCF Done:  E(RHF) =  -310.260249946     A.U. after    7 cycles
 E2 =    -0.1119544294D+01 EUMP2 =    -0.31137979424069D+03
 Optimization completed.
    -- Stationary point found.

 1\1\GINC-N2097\FOpt\RMP2-FC\Aug-CC-pVDZ\C6H14O1\GDS001\08-Feb-2022\0\\
 # MP2/aug-cc-pVDZ opt freq\\Me Me Ref Closed\\0,1\O,-1.4360632082,-0.7
 559412657,-0.1858176861\C,-0.8046886343,0.4697302361,0.2687177604\H,-0
 .9317934392,-1.4950377507,0.1875304717\C,0.627358322,0.5418488109,-0.3
 219243218\C,-0.7765178079,0.4710442256,1.8018750869\C,-1.7217812059,1.
 5787219936,-0.2460293714\H,1.1235375591,-0.3960748069,0.0020280552\C,1
 .4543731704,1.7168773129,0.2234269032\C,0.6192346736,0.5681309631,-1.8
 57180259\H,-1.8699497524,1.4865374393,-1.3312811385\H,-1.3037405606,2.

 Normal termination of Gaussian 16 at Tue Feb  8 13:11:45 2022.

 ----------------------------------------------------------------------
 #N Geom=AllCheck Guess=TCheck SCRF=Check GenChk RMP2(FC)/Aug-CC-pVDZ F
 req
 ----------------------------------------------------------------------

 Structure from the checkpoint file:  "/gscratch/scrubbed/gds001/Gau-8309.chk"
 ----------------
 Me Me Ref Closed
 ----------------
 Charge =  0 Multiplicity = 1

                         Standard orientation:
 ---------------------------------------------------------------------
 Center     Atomic      Atomic             Coordinates (Angstroms)
 Number     Number       Type             X           Y           Z
 ---------------------------------------------------------------------
      1          8           0        1.242270   -1.162888   -0.705846
      2          6           0        0.640144   -0.037532   -0.014092
      3          1           0        1.231761   -0.957400   -1.653266
      4          6           0       -0.844840    0.076849   -0.446012
      5          6           0        1.422751    1.233530   -0.365226
      6          6           0        0.809216   -0.372402    1.467517
      7          1           0       -0.820969    0.157326   -1.552264
      8          6           0       -1.543337    1.333993    0.095970
      9          6           0       -1.652188   -1.176684   -0.079117
     10          1           0        0.383370   -1.360449    1.692552
     11          1           0        0.320750    0.383652    2.101249
     12          1           0        1.881179   -0.396795    1.717097
     13          1           0        1.252151    1.521370   -1.417708
     14          1           0        2.497874    1.044774   -0.223271
     15          1           0        1.130069    2.080582    0.273844
     16          1           0       -2.627759   -1.164015   -0.591539
     17          1           0       -1.848910   -1.211164    1.005061
     18          1           0       -1.118092   -2.094006   -0.367339
     19          1           0       -2.597628    1.344262   -0.225567
     20          1           0       -1.076786    2.262690   -0.264862
     21          1           0       -1.535648    1.345752    1.198548
 ---------------------------------------------------------------------

 SCF Done:  E(RHF) =  -310.260249946     A.U. after    1 cycles
 E2 =    -0.1119544299D+01 EUMP2 =    -0.31137979424517D+03
 E2 =    -0.1119544299D+01 EUMP2 =    -0.31137979424517D+03

 The electronic state is 1-A.
 Alpha  occ. eigenvalues --  -20.55939 -11.28878 -11.23518 -11.22497 -11.22456
 Alpha  occ. eigenvalues --  -11.21791 -11.21622  -1.35256  -1.09067  -1.00946
 Alpha  occ. eigenvalues --   -0.94226  -0.91951  -0.83740  -0.74540  -0.66445
 Alpha  occ. eigenvalues --   -0.63539  -0.62048  -0.59576  -0.56623  -0.54545
 Alpha  occ. eigenvalues --   -0.54192  -0.52439  -0.51958  -0.51408  -0.49487
 Alpha  occ. eigenvalues --   -0.48572  -0.46656  -0.44592  -0.41960
 Alpha virt. eigenvalues --    0.03457   0.04354   0.04490   0.04830   0.06371
 Alpha virt. eigenvalues --    0.06488   0.06545   0.06720   0.06910   0.08860
 Alpha virt. eigenvalues --    0.09236   0.09586   0.09769   0.10161   0.12750

 Mulliken charges:
               1
     1  O   -0.809382
     2  C   -1.697177
     3  H    0.117184
     4  C   -0.642273
     5  C    0.986887
     6  C    0.882598
     7  H   -0.195444
     8  C    0.785581
     9  C    0.724808
    10  H    0.022096
    11  H    0.042491
    12  H    0.034137
    13  H   -0.028631
    14  H   -0.014788
    15  H    0.067902
    16  H   -0.106337
    17  H    0.012756
    18  H   -0.032564
    19  H   -0.049212
    20  H   -0.071750
    21  H   -0.028883
 Sum of Mulliken charges =  -0.00000

 Dipole moment (field-independent basis, Debye):
    X=             -0.6622    Y=              1.4598    Z=             -0.5917  Tot=              1.7087
 Quadrupole moment (field-independent basis, Debye-Ang):
   XX=            -49.0606   YY=            -50.2211   ZZ=            -43.8432
   XY=              2.0530   XZ=             -0.4440   YZ=              0.0795

  Exact polarizability:  84.891   1.099  81.159  -0.094  -0.391  77.160
 Approx polarizability:  67.580  -0.476  67.944  -0.320   0.225  69.748

                      1                      2                      3
                      A                      A                      A
 Frequencies --     86.2559               203.0184               229.5314
 Red. masses --      2.3268                 1.0240                 1.2439
 Frc consts  --      0.0102                 0.0249                 0.0386
 IR Inten    --      0.2203                 4.2763                 2.0588

                      4                      5                      6
                      A                      A                      A
 Frequencies --    246.2579               267.9496               286.7791
 Red. masses --      1.6428                 1.1171                 1.5949
 Frc consts  --      0.0587                 0.0473                 0.0773
 IR Inten    --     11.3696                 0.1080                 6.7938

                      7                      8                      9
                      A                      A                      A
 Frequencies --    299.5044               306.5334               358.8397
 Red. masses --      1.3099                 1.5414                 2.1017
 Frc consts  --      0.0692                 0.0853                 0.1594
 IR Inten    --     80.0323                 3.0453                 0.2045

                     10                     11                     12
                      A                      A                      A
 Frequencies --    368.1945               399.2780               455.0697
 Red. masses --      2.0352                 2.5190                 2.4510
 Frc consts  --      0.1626                 0.2366                 0.2991
 IR Inten    --      1.7279                 3.0013                 5.7788

                     13                     14                     15
                      A                      A                      A
 Frequencies --    487.2849               530.0612               710.3638
 Red. masses --      3.3251                 2.4380                 2.9233
 Frc consts  --      0.4652                 0.4036                 0.8691
 IR Inten    --      5.0897                 3.0624                 2.9534

                     16                     17                     18
                      A                      A                      A
 Frequencies --    868.8704               918.0984               931.6031
 Red. masses --      2.3539                 1.1922                 1.8241
 Frc consts  --      1.0470                 0.5921                 0.9327
 IR Inten    --      7.1748                 0.3135                14.9636

                     19                     20                     21
                      A                      A                      A
 Frequencies --    936.0770               959.4018               977.3625
 Red. masses --      1.5094                 1.5991                 1.4815
 Frc consts  --      0.7792                 0.8672                 0.8338
 IR Inten    --      3.0225                10.9265                 4.7119

                     22                     23                     24
                      A                      A                      A
 Frequencies --    995.5149              1073.4538              1130.7828
 Red. masses --      1.3198                 1.5265                 2.0652
 Frc consts  --      0.7707                 1.0364                 1.5558
 IR Inten    --      4.7568                 8.6834                 1.2700

                     25                     26                     27
                      A                      A                      A
 Frequencies --   1158.1172              1176.4947              1201.9096
 Red. masses --      1.6979                 1.9017                 2.2725
 Frc consts  --      1.3417                 1.5509                 1.9342
 IR Inten    --     68.4574                 5.4899                15.0835

                     28                     29                     30
                      A                      A                      A
 Frequencies --   1245.6737              1328.3762              1333.0906
 Red. masses --      1.9310                 1.9831                 1.4386
 Frc consts  --      1.7654                 2.0618                 1.5063
 IR Inten    --     15.9447                10.6330                 2.3963

                     31                     32                     33
                      A                      A                      A
 Frequencies --   1359.9064              1379.4200              1385.5144
 Red. masses --      1.2574                 1.3208                 1.3482
 Frc consts  --      1.3701                 1.4808                 1.5248
 IR Inten    --      6.3823                 5.9775                18.1038

                     34                     35                     36
                      A                      A                      A
 Frequencies --   1400.8785              1413.7739              1467.7262
 Red. masses --      1.2651                 1.6035                 1.0500
 Frc consts  --      1.4627                 1.8884                 1.3327
 IR Inten    --      9.6894                18.5183                 0.3178

                     37                     38                     39
                      A                      A                      A
 Frequencies --   1476.5454              1480.8981              1485.0033
 Red. masses --      1.0485                 1.0658                 1.0566
 Frc consts  --      1.3468                 1.3772                 1.3728
 IR Inten    --      1.2423                 0.9937                 2.5008

                     40                     41                     42
                      A                      A                      A
 Frequencies --   1496.0906              1497.9485              1505.0376
 Red. masses --      1.0608                 1.0513                 1.0524
 Frc consts  --      1.3989                 1.3898                 1.4045
 IR Inten    --     11.9469                 6.2298                 4.1913

                     43                     44                     45
                      A                      A                      A
 Frequencies --   1510.7940              3009.4071              3045.8268
 Red. masses --      1.0640                 1.0828                 1.0378
 Frc consts  --      1.4309                 5.7778                 5.6724
 IR Inten    --      2.9167                32.2878                19.9250

                     46                     47                     48
                      A                      A                      A
 Frequencies --   3054.5846              3056.2898              3068.8030
 Red. masses --      1.0363                 1.0364                 1.0357
 Frc consts  --      5.6972                 5.7041                 5.7470
 IR Inten    --     19.7548                25.5540                12.9083

                     49                     50                     51
                      A                      A                      A
 Frequencies --   3136.2906              3137.3091              3140.1001
 Red. masses --      1.1009                 1.0991                 1.0998
 Frc consts  --      6.3800                 6.3740                 6.3892
 IR Inten    --      2.3290                 4.3534                81.4028

                     52                     53                     54
                      A                      A                      A
 Frequencies --   3153.8549              3160.5054              3163.3527
 Red. masses --      1.1017                 1.1010                 1.1007
 Frc consts  --      6.4568                 6.4795                 6.4898
 IR Inten    --     14.5435                22.2842                11.0577

                     55                     56                     57
                      A                      A                      A
 Frequencies --   3165.0857              3174.3848              3781.5769
 Red. masses --      1.1010                 1.1014                 1.0661
 Frc consts  --      6.4987                 6.5388                 8.9825
 IR Inten    --     27.5994                14.6580                16.4472

 - Thermochemistry -
 -------------------
 Temperature   298.150 Kelvin.  Pressure   1.00000 Atm.
 Atom     1 has atomic number  8 and mass  15.99491

 Molecular mass:   102.10447 amu.
 Principal axes and moments of inertia in atomic units:
                           1         2         3
     Eigenvalues --   588.99946 812.91344 983.24864
           X            0.99797   0.06330   0.00647
           Y           -0.06305   0.99744  -0.03375
           Z           -0.00859   0.03328   0.99941
 This molecule is an asymmetric top.
 Rotational symmetry number  1.
 Warning -- assumption of classical behavior for rotation
           may cause significant error
 Rotational temperatures (Kelvin)      0.14705     0.10655     0.08809
 Rotational constants (GHZ):           3.06408     2.22009     1.83549
 Zero-point vibrational energy     505880.8 (Joules/Mol)
                                  120.90840 (Kcal/Mol)
 Warning -- explicit consideration of  14 degrees of freedom as
           vibrations may cause significant error
 Vibrational temperatures:    124.10   292.10   330.24   354.31   385.52
          (Kelvin)            412.61   430.92   441.03   516.29   529.75
                              574.47   654.74   701.09   762.64  1022.06
                             1250.11  1320.94  1340.37  1346.81  1380.37
                             1406.21  1432.32  1544.46  1626.94  1666.27
                             1692.71  1729.28  1792.25  1911.24  1918.02
                             1956.60  1984.68  1993.45  2015.55  2034.11
                             2111.73  2124.42  2130.68  2136.59  2152.54
                             2155.21  2165.41  2173.70  4329.87  4382.27
                             4394.87  4397.32  4415.32  4512.42  4513.89
                             4517.90  4537.69  4547.26  4551.36  4553.85
                             4567.23  5440.85

 Zero-point correction=                           0.192680 (Hartree/Particle)
 Thermal correction to Energy=                    0.201922
 Thermal correction to Enthalpy=                  0.202866
 Thermal correction to Gibbs Free Energy=         0.160235
 Sum of electronic and zero-point Energies=           -311.187114
 Sum of electronic and thermal Energies=              -311.177872
 Sum of electronic and thermal Enthalpies=            -311.176928
 Sum of electronic and thermal Free Energies=         -311.219559

                     E (Thermal)             CV                S
                      KCal/Mol        Cal/Mol-Kelvin    Cal/Mol-Kelvin
 Total                  126.708             35.250             89.724
 Electronic               0.000              0.000              0.000
 Translational            0.889              2.981             39.780
 Rotational               0.889              2.981             27.645
 Vibrational            124.931             29.288             22.299
 Vibration     1          0.601              1.959              3.743
 Vibration     2          0.639              1.836              2.106
 Vibration     3          0.652              1.796              1.883
 Vibration     4          0.661              1.769              1.757
 Vibration     5          0.673              1.732              1.609
 Vibration     6          0.684              1.698              1.493
 Vibration     7          0.692              1.675              1.420
 Vibration     8          0.697              1.661              1.381
 Vibration     9          0.734              1.557              1.127
 Vibration    10          0.741              1.538              1.087
 Vibration    11          0.765              1.472              0.965
 Vibration    12          0.813              1.350              0.781
 Vibration    13          0.843              1.278              0.691
 Vibration    14          0.885              1.183              0.587

 Optimization completed.
    -- Stationary point found.

 1\1\GINC-N2097\Freq\RMP2-FC\Aug-CC-pVDZ\C6H14O1\GDS001\08-Feb-2022\0\\
 #N Geom=AllCheck Guess=TCheck SCRF=Check GenChk RMP2(FC)/Aug-CC-pVDZ F
 req\\Me Me Ref Closed\\0,1\O,-1.4360632082,-0.7559412657,-0.1858176861
 \C,-0.8046886343,0.4697302361,0.2687177604\H,-0.9317934392,-1.49503775
 07,0.1875304717\C,0.627358322,0.5418488109,-0.3219243218\C,-0.77651780
 79,0.4710442256,1.8018750869\C,-1.7217812059,1.5787219936,-0.246029371
 4\H,1.1235375591,-0.3960748069,0.0020280552\C,1.4543731704,1.716877312
 9,0.2234269032\C,0.6192346736,0.5681309631,-1.857180259\H,-1.869949752

 Normal termination of Gaussian 16 at Tue Feb  8 13:41:57 2022.
