 Gaussian 16, Revision A.03,
 Gaussian 16:  ES64L-G16RevA.03 25-Dec-2016

 --------------------------
 # MP2/aug-cc-pVDZ opt freq
 --------------------------

 --------------
 Me Me Ref Open
 --------------
 Symbolic Z-matrix:
 Charge =  0 Multiplicity = 1

 SCF Done:  E(RHF) =  -310.260334744     A.U. after   13 cycles
 E2 =    -0.1116685186D+01 EUMP2 =    -0.31137701992990D+03
 SCF Done:  E(RHF) =  -310.259128672     A.U. after   11 cycles
 E2 =    -0.1119952173D+01 EUMP2 =    -0.31137908084510D+03
 SCF Done:  E(RHF) =  -310.260233452     A.U. after   11 cycles
 E2 =    -0.1119356100D+01 EUMP2 =    -0.31137958955217D+03
 SCF Done:  E(RHF) =  -310.260233521     A.U. after   10 cycles
 E2 =    -0.1119410540D+01 EUMP2 =    -0.31137964406093D+03
 SCF Done:  E(RHF) =  -310.260231810     A.U. after    9 cycles
 E2 =    -0.1119423115D+01 EUMP2 =    -0.31137965492451D+03
 SCF Done:  E(RHF) =  -310.260210928     A.U. after    9 cycles
 E2 =    -0.1119453251D+01 EUMP2 =    -0.31137966417981D+03
 SCF Done:  E(RHF) =  -310.260195887     A.U. after    8 cycles
 E2 =    -0.1119469515D+01 EUMP2 =    -0.31137966540250D+03
 SCF Done:  E(RHF) =  -310.260201826     A.U. after    8 cycles
 E2 =    -0.1119463741D+01 EUMP2 =    -0.31137966556721D+03
 SCF Done:  E(RHF) =  -310.260205773     A.U. after    7 cycles
 E2 =    -0.1119459846D+01 EUMP2 =    -0.31137966561879D+03
 SCF Done:  E(RHF) =  -310.260209729     A.U. after    8 cycles
 E2 =    -0.1119455964D+01 EUMP2 =    -0.31137966569269D+03
 SCF Done:  E(RHF) =  -310.260208664     A.U. after    7 cycles
 E2 =    -0.1119457059D+01 EUMP2 =    -0.31137966572356D+03
 Optimization completed.
    -- Stationary point found.

 1\1\GINC-N2096\FOpt\RMP2-FC\Aug-CC-pVDZ\C6H14O1\GDS001\08-Feb-2022\0\\
 # MP2/aug-cc-pVDZ opt freq\\Me Me Ref Open\\0,1\O,-1.347416317,-0.7804
 414173,-0.179333358\C,-0.8210367536,0.492728844,0.2795554632\H,-2.2475
 712944,-0.8636563991,0.1694228682\C,0.6061501338,0.5374714337,-0.31262
 35725\C,-0.7884129764,0.4877793388,1.8124148548\C,-1.7205323561,1.6250
 980561,-0.2295941868\H,1.0786953958,-0.4047283771,0.022195071\C,1.4409
 739306,1.7128446339,0.2174291253\C,0.598650549,0.54456733,-1.848517042
 1\H,-1.8541560904,1.5565838122,-1.3185399777\H,-1.3045626709,2.6138068

 Normal termination of Gaussian 16 at Tue Feb  8 13:14:10 2022.

 ----------------------------------------------------------------------
 #N Geom=AllCheck Guess=TCheck SCRF=Check GenChk RMP2(FC)/Aug-CC-pVDZ F
 req
 ----------------------------------------------------------------------

 Structure from the checkpoint file:  "/gscratch/scrubbed/gds001/Gau-24650.chk"
 --------------
 Me Me Ref Open
 --------------
 Charge =  0 Multiplicity = 1

                         Standard orientation:
 ---------------------------------------------------------------------
 Center     Atomic      Atomic             Coordinates (Angstroms)
 Number     Number       Type             X           Y           Z
 ---------------------------------------------------------------------
      1          8           0        1.141148   -1.149361   -0.800984
      2          6           0        0.634753   -0.033467   -0.021907
      3          1           0        2.076782   -1.259146   -0.574333
      4          6           0       -0.847393    0.072212   -0.448072
      5          6           0        1.416129    1.228798   -0.405164
      6          6           0        0.812578   -0.336406    1.470471
      7          1           0       -0.817998    0.141498   -1.551466
      8          6           0       -1.542277    1.328696    0.097612
      9          6           0       -1.651313   -1.181593   -0.072891
     10          1           0        0.365323   -1.307302    1.726745
     11          1           0        0.357888    0.446807    2.097583
     12          1           0        1.887457   -0.377541    1.717921
     13          1           0        1.236153    1.486050   -1.461048
     14          1           0        2.497112    1.052860   -0.270572
     15          1           0        1.137848    2.085962    0.227183
     16          1           0       -2.634996   -1.158922   -0.569245
     17          1           0       -1.831940   -1.225078    1.014056
     18          1           0       -1.128181   -2.098054   -0.381561
     19          1           0       -2.595888    1.339729   -0.225515
     20          1           0       -1.075990    2.257880   -0.262592
     21          1           0       -1.537611    1.340710    1.200426
 ---------------------------------------------------------------------

 SCF Done:  E(RHF) =  -310.260208664     A.U. after    1 cycles
 E2 =    -0.1119457061D+01 EUMP2 =    -0.31137966572569D+03
 E2 =    -0.1119457061D+01 EUMP2 =    -0.31137966572569D+03

 The electronic state is 1-A.
 Alpha  occ. eigenvalues --  -20.55949 -11.28911 -11.22904 -11.22473 -11.22438
 Alpha  occ. eigenvalues --  -11.22130 -11.21192  -1.35279  -1.08924  -1.00730
 Alpha  occ. eigenvalues --   -0.94199  -0.91770  -0.84451  -0.73049  -0.66468
 Alpha  occ. eigenvalues --   -0.64380  -0.61133  -0.59174  -0.58105  -0.54969
 Alpha  occ. eigenvalues --   -0.53850  -0.52800  -0.52035  -0.50406  -0.50118
 Alpha  occ. eigenvalues --   -0.47081  -0.46473  -0.43805  -0.42727
 Alpha virt. eigenvalues --    0.03513   0.04230   0.04645   0.04921   0.06279
 Alpha virt. eigenvalues --    0.06365   0.06531   0.06787   0.07018   0.08803
 Alpha virt. eigenvalues --    0.09291   0.09585   0.09689   0.10161   0.12878

 Mulliken charges:
               1
     1  O   -0.807045
     2  C   -1.633895
     3  H    0.107849
     4  C   -0.831339
     5  C    1.019712
     6  C    0.967265
     7  H   -0.166353
     8  C    0.825038
     9  C    0.728343
    10  H    0.046526
    11  H    0.019099
    12  H   -0.024330
    13  H    0.041729
    14  H   -0.079812
    15  H    0.064416
    16  H   -0.098515
    17  H   -0.008278
    18  H   -0.021051
    19  H   -0.050197
    20  H   -0.070745
    21  H   -0.028416
 Sum of Mulliken charges =  -0.00000

 Dipole moment (field-independent basis, Debye):
    X=              0.7530    Y=              1.0042    Z=              1.0274  Tot=              1.6220
 Quadrupole moment (field-independent basis, Debye-Ang):
   XX=            -43.7583   YY=            -49.0574   ZZ=            -48.6475
   XY=             -0.7576   XZ=              1.0517   YZ=             -1.5711

  Exact polarizability:  86.214   0.590  81.398   0.184  -0.645  75.999
 Approx polarizability:  69.309  -0.661  67.933   0.149   0.533  68.068

                      1                      2                      3
                      A                      A                      A
 Frequencies --     72.9862               209.9686               235.2319
 Red. masses --      2.4060                 1.0227                 1.3323
 Frc consts  --      0.0076                 0.0266                 0.0434
 IR Inten    --      1.5535                 0.0311                 0.6319

                      4                      5                      6
                      A                      A                      A
 Frequencies --    257.3636               264.6057               268.4819
 Red. masses --      1.4400                 1.1846                 1.0860
 Frc consts  --      0.0562                 0.0489                 0.0461
 IR Inten    --      6.3071                19.4096                70.1763

                      7                      8                      9
                      A                      A                      A
 Frequencies --    289.0452               307.3994               358.6595
 Red. masses --      1.8710                 1.6104                 2.1438
 Frc consts  --      0.0921                 0.0897                 0.1625
 IR Inten    --      2.9349                 0.1923                 0.1060

                     10                     11                     12
                      A                      A                      A
 Frequencies --    369.7476               402.4959               455.9466
 Red. masses --      1.9754                 2.7729                 2.3640
 Frc consts  --      0.1591                 0.2647                 0.2896
 IR Inten    --      1.2176                 3.0462                 4.4092

                     13                     14                     15
                      A                      A                      A
 Frequencies --    484.9693               529.1551               710.7253
 Red. masses --      3.2849                 2.4492                 2.8818
 Frc consts  --      0.4552                 0.4040                 0.8577
 IR Inten    --      6.9153                 2.4919                 0.8026

                     16                     17                     18
                      A                      A                      A
 Frequencies --    866.2128               918.1271               924.7260
 Red. masses --      2.4307                 1.2349                 1.3604
 Frc consts  --      1.0745                 0.6133                 0.6854
 IR Inten    --     16.5018                 0.0713                 0.1287

                     19                     20                     21
                      A                      A                      A
 Frequencies --    937.6200               956.7727               976.4697
 Red. masses --      1.9975                 1.6117                 1.4053
 Frc consts  --      1.0346                 0.8692                 0.7895
 IR Inten    --     12.9952                 4.7585                 0.5473

                     22                     23                     24
                      A                      A                      A
 Frequencies --    997.6506              1082.7490              1109.1919
 Red. masses --      1.3449                 1.4826                 1.7101
 Frc consts  --      0.7887                 1.0241                 1.2396
 IR Inten    --      0.0322                 4.9318                79.3165

                     25                     26                     27
                      A                      A                      A
 Frequencies --   1149.3727              1193.8652              1207.9339
 Red. masses --      1.9755                 2.0257                 2.0367
 Frc consts  --      1.5377                 1.7011                 1.7509
 IR Inten    --      7.2077                14.8261                 1.4475

                     28                     29                     30
                      A                      A                      A
 Frequencies --   1237.4247              1332.4349              1341.3495
 Red. masses --      2.5451                 1.4261                 1.3508
 Frc consts  --      2.2961                 1.4918                 1.4319
 IR Inten    --     14.5845                 4.8022                 7.4029

                     31                     32                     33
                      A                      A                      A
 Frequencies --   1370.3010              1380.0473              1383.2285
 Red. masses --      1.8793                 1.3415                 1.4442
 Frc consts  --      2.0791                 1.5054                 1.6281
 IR Inten    --     14.1382                 9.3745                 9.9347

                     34                     35                     36
                      A                      A                      A
 Frequencies --   1393.6453              1402.3623              1469.2619
 Red. masses --      1.3089                 1.2407                 1.0463
 Frc consts  --      1.4979                 1.4376                 1.3308
 IR Inten    --     18.2320                 6.4808                 0.0578

                     37                     38                     39
                      A                      A                      A
 Frequencies --   1474.5315              1477.8157              1487.9140
 Red. masses --      1.0505                 1.0531                 1.0545
 Frc consts  --      1.3457                 1.3551                 1.3754
 IR Inten    --      2.9856                 0.7937                 6.0557

                     40                     41                     42
                      A                      A                      A
 Frequencies --   1496.9087              1497.9668              1503.8299
 Red. masses --      1.0607                 1.0516                 1.0527
 Frc consts  --      1.4004                 1.3903                 1.4026
 IR Inten    --      4.2103                 9.2318                 5.3249

                     43                     44                     45
                      A                      A                      A
 Frequencies --   1511.7682              3047.9704              3049.1763
 Red. masses --      1.0889                 1.0366                 1.0644
 Frc consts  --      1.4663                 5.6737                 5.8305
 IR Inten    --      3.6176                15.2427                20.2843

                     46                     47                     48
                      A                      A                      A
 Frequencies --   3053.2199              3054.3480              3057.4957
 Red. masses --      1.0515                 1.0382                 1.0396
 Frc consts  --      5.7751                 5.7065                 5.7260
 IR Inten    --      8.7640                25.2296                28.4830

                     49                     50                     51
                      A                      A                      A
 Frequencies --   3132.0310              3134.9760              3137.5651
 Red. masses --      1.0998                 1.1007                 1.0996
 Frc consts  --      6.3565                 6.3736                 6.3777
 IR Inten    --      2.4934                 3.3403                79.6893

                     52                     53                     54
                      A                      A                      A
 Frequencies --   3140.6017              3154.1721              3161.5076
 Red. masses --      1.0992                 1.1014                 1.1009
 Frc consts  --      6.3876                 6.4562                 6.4831
 IR Inten    --     26.1077                35.0898                14.3169

                     55                     56                     57
                      A                      A                      A
 Frequencies --   3168.5835              3171.3192              3789.3810
 Red. masses --      1.1007                 1.1010                 1.0663
 Frc consts  --      6.5110                 6.5241                 9.0212
 IR Inten    --     19.2650                11.4846                15.7965

 - Thermochemistry -
 -------------------
 Temperature   298.150 Kelvin.  Pressure   1.00000 Atm.
 Atom     1 has atomic number  8 and mass  15.99491

 Molecular mass:   102.10447 amu.
 Principal axes and moments of inertia in atomic units:
                           1         2         3
     Eigenvalues --   589.64861 809.68827 977.28896
           X            0.99891   0.04492   0.01257
           Y           -0.04423   0.99773  -0.05078
           Z           -0.01483   0.05016   0.99863
 This molecule is an asymmetric top.
 Rotational symmetry number  1.
 Warning -- assumption of classical behavior for rotation
           may cause significant error
 Rotational temperatures (Kelvin)      0.14689     0.10697     0.08863
 Rotational constants (GHZ):           3.06071     2.22893     1.84668
 Zero-point vibrational energy     505725.0 (Joules/Mol)
                                  120.87117 (Kcal/Mol)
 Warning -- explicit consideration of  14 degrees of freedom as
           vibrations may cause significant error
 Vibrational temperatures:    105.01   302.10   338.45   370.29   380.71
          (Kelvin)            386.29   415.87   442.28   516.03   531.98
                              579.10   656.01   697.76   761.34  1022.58
                             1246.29  1320.98  1330.47  1349.03  1376.58
                             1404.92  1435.40  1557.83  1595.88  1653.69
                             1717.71  1737.95  1780.38  1917.08  1929.90
                             1971.56  1985.58  1990.16  2005.14  2017.69
                             2113.94  2121.52  2126.25  2140.78  2153.72
                             2155.24  2163.68  2175.10  4385.35  4387.08
                             4392.90  4394.53  4399.05  4506.29  4510.53
                             4514.26  4518.63  4538.15  4548.70  4558.88
                             4562.82  5452.07

 Zero-point correction=                           0.192620 (Hartree/Particle)
 Thermal correction to Energy=                    0.201895
 Thermal correction to Enthalpy=                  0.202839
 Thermal correction to Gibbs Free Energy=         0.160056
 Sum of electronic and zero-point Energies=           -311.187045
 Sum of electronic and thermal Energies=              -311.177771
 Sum of electronic and thermal Enthalpies=            -311.176827
 Sum of electronic and thermal Free Energies=         -311.219610

                     E (Thermal)             CV                S
                      KCal/Mol        Cal/Mol-Kelvin    Cal/Mol-Kelvin
 Total                  126.691             35.286             90.044
 Electronic               0.000              0.000              0.000
 Translational            0.889              2.981             39.780
 Rotational               0.889              2.981             27.636
 Vibrational            124.913             29.324             22.627
 Vibration     1          0.599              1.967              4.071
 Vibration     2          0.642              1.826              2.044
 Vibration     3          0.655              1.787              1.839
 Vibration     4          0.667              1.750              1.680
 Vibration     5          0.671              1.738              1.631
 Vibration     6          0.673              1.731              1.606
 Vibration     7          0.686              1.694              1.480
 Vibration     8          0.697              1.660              1.376
 Vibration     9          0.733              1.557              1.128
 Vibration    10          0.742              1.534              1.081
 Vibration    11          0.768              1.465              0.954
 Vibration    12          0.814              1.348              0.778
 Vibration    13          0.841              1.283              0.697
 Vibration    14          0.884              1.185              0.589

 Optimization completed.
    -- Stationary point found.

 1\1\GINC-N2096\Freq\RMP2-FC\Aug-CC-pVDZ\C6H14O1\GDS001\08-Feb-2022\0\\
 #N Geom=AllCheck Guess=TCheck SCRF=Check GenChk RMP2(FC)/Aug-CC-pVDZ F
 req\\Me Me Ref Open\\0,1\O,-1.347416317,-0.7804414173,-0.179333358\C,-
 0.8210367536,0.492728844,0.2795554632\H,-2.2475712944,-0.8636563991,0.
 1694228682\C,0.6061501338,0.5374714337,-0.3126235725\C,-0.7884129764,0
 .4877793388,1.8124148548\C,-1.7205323561,1.6250980561,-0.2295941868\H,
 1.0786953958,-0.4047283771,0.022195071\C,1.4409739306,1.7128446339,0.2
 174291253\C,0.598650549,0.54456733,-1.8485170421\H,-1.8541560904,1.556

 Normal termination of Gaussian 16 at Tue Feb  8 13:44:36 2022.
