 Gaussian 16, Revision A.03,
 Gaussian 16:  ES64L-G16RevA.03 25-Dec-2016

 --------------------------
 # MP2/aug-cc-pVDZ opt freq
 --------------------------

 ----------
 F H Closed
 ----------
 Symbolic Z-matrix:
 Charge =  0 Multiplicity = 1

 SCF Done:  E(RHF) =  -406.901031242     A.U. after   12 cycles
 E2 =    -0.1074696854D+01 EUMP2 =    -0.40797572809532D+03
 SCF Done:  E(RHF) =  -406.906760441     A.U. after   11 cycles
 E2 =    -0.1075454913D+01 EUMP2 =    -0.40798221535369D+03
 SCF Done:  E(RHF) =  -406.907678989     A.U. after   10 cycles
 E2 =    -0.1075853312D+01 EUMP2 =    -0.40798353230041D+03
 SCF Done:  E(RHF) =  -406.907070188     A.U. after   11 cycles
 E2 =    -0.1076695963D+01 EUMP2 =    -0.40798376615106D+03
 SCF Done:  E(RHF) =  -406.907360950     A.U. after   10 cycles
 E2 =    -0.1076694518D+01 EUMP2 =    -0.40798405546855D+03
 SCF Done:  E(RHF) =  -406.907508841     A.U. after    9 cycles
 E2 =    -0.1076592667D+01 EUMP2 =    -0.40798410150714D+03
 SCF Done:  E(RHF) =  -406.907522097     A.U. after    8 cycles
 E2 =    -0.1076585000D+01 EUMP2 =    -0.40798410709648D+03
 SCF Done:  E(RHF) =  -406.907525323     A.U. after    7 cycles
 E2 =    -0.1076582540D+01 EUMP2 =    -0.40798410786334D+03
 Optimization completed.
    -- Stationary point found.
 Normal termination of Gaussian 16 at Tue Feb  8 12:53:09 2022.

 ----------------------------------------------------------------------
 #N Geom=AllCheck Guess=TCheck SCRF=Check GenChk RMP2(FC)/Aug-CC-pVDZ F
 req
 ----------------------------------------------------------------------

 Structure from the checkpoint file:  "/gscratch/scrubbed/gds001/Gau-22434.chk"
 ----------
 F H Closed
 ----------
 Charge =  0 Multiplicity = 1

                         Standard orientation:
 ---------------------------------------------------------------------
 Center     Atomic      Atomic             Coordinates (Angstroms)
 Number     Number       Type             X           Y           Z
 ---------------------------------------------------------------------
      1          8           0        0.454976    1.249144   -0.606755
      2          6           0        0.447299    0.012339   -0.035168
      3          1           0       -0.478988    1.537709   -0.571996
      4          6           0       -0.827836   -0.776131   -0.300354
      5          9           0        0.609107    0.123321    1.349271
      6          9           0        1.543457   -0.672303   -0.478162
      7          7           0       -1.954696    0.114337    0.013744
      8          1           0       -0.789005   -1.712434    0.279659
      9          1           0       -0.846171   -1.015250   -1.372909
     10          1           0       -2.120022    0.135920    1.020127
     11          1           0       -2.812610   -0.215864   -0.423894
 ---------------------------------------------------------------------

 SCF Done:  E(RHF) =  -406.907525323     A.U. after    1 cycles
 E2 =    -0.1076582518D+01 EUMP2 =    -0.40798410784109D+03
 E2 =    -0.1076582518D+01 EUMP2 =    -0.40798410784109D+03

 The electronic state is 1-A.
 Alpha  occ. eigenvalues --  -26.32449 -26.31290 -20.60345 -15.59435 -11.46989
 Alpha  occ. eigenvalues --  -11.29827  -1.66406  -1.59551  -1.41593  -1.21902
 Alpha  occ. eigenvalues --   -1.00607  -0.88274  -0.78707  -0.76320  -0.74556
 Alpha  occ. eigenvalues --   -0.69490  -0.67226  -0.66048  -0.64181  -0.62268
 Alpha  occ. eigenvalues --   -0.60796  -0.57059  -0.54194  -0.51389  -0.44207
 Alpha virt. eigenvalues --    0.02539   0.04606   0.04792   0.05740   0.07433
 Alpha virt. eigenvalues --    0.09912   0.11419   0.11882   0.12221   0.14874
 Alpha virt. eigenvalues --    0.16344   0.16872   0.17432   0.19174   0.19543

 Mulliken charges:
               1
     1  O   -0.766808
     2  C    1.932623
     3  H    0.264038
     4  C    0.503974
     5  F   -0.701808
     6  F   -0.680377
     7  N   -0.556233
     8  H   -0.022027
     9  H   -0.086137
    10  H    0.080387
    11  H    0.032369
 Sum of Mulliken charges =  -0.00000

 Dipole moment (field-independent basis, Debye):
    X=             -4.4248    Y=             -1.3559    Z=             -0.4320  Tot=              4.6480
 Quadrupole moment (field-independent basis, Debye-Ang):
   XX=            -32.1628   YY=            -34.5219   ZZ=            -35.3898
   XY=              1.0051   XZ=              0.1825   YZ=              0.5301

  Exact polarizability:  45.583  -0.688  42.243  -0.559  -0.453  39.701
 Approx polarizability:  34.756  -1.228  34.132  -0.344  -0.176  34.289

                      1                      2                      3
                      A                      A                      A
 Frequencies --    116.5998               239.7926               298.2427
 Red. masses --      3.2433                 3.0217                 1.2856
 Frc consts  --      0.0260                 0.1024                 0.0674
 IR Inten    --      6.1284                 2.8629                12.4860

                      4                      5                      6
                      A                      A                      A
 Frequencies --    368.8219               412.2888               516.6138
 Red. masses --      3.0237                 7.1935                 4.3284
 Frc consts  --      0.2423                 0.7204                 0.6806
 IR Inten    --      5.0841                 1.1923                10.8770

                      7                      8                      9
                      A                      A                      A
 Frequencies --    537.5371               597.8878               641.4244
 Red. masses --      6.2749                 1.5142                 2.9845
 Frc consts  --      1.0683                 0.3189                 0.7235
 IR Inten    --      7.5666                49.6821                40.7065

                     10                     11                     12
                      A                      A                      A
 Frequencies --    803.7634               868.6856               957.6330
 Red. masses --      4.5629                 1.2859                 2.2856
 Frc consts  --      1.7368                 0.5717                 1.2349
 IR Inten    --     31.5398                89.6783                73.5557

                     13                     14                     15
                      A                      A                      A
 Frequencies --   1036.3339              1083.8344              1128.1370
 Red. masses --      1.7939                 3.6168                 2.2322
 Frc consts  --      1.1351                 2.5033                 1.6738
 IR Inten    --    111.2565                59.7114               174.6172

                     16                     17                     18
                      A                      A                      A
 Frequencies --   1213.2037              1280.6877              1331.4168
 Red. masses --      1.6658                 2.3100                 1.7526
 Frc consts  --      1.4446                 2.2323                 1.8304
 IR Inten    --     71.9833                50.8925               125.9070

                     19                     20                     21
                      A                      A                      A
 Frequencies --   1379.9308              1462.9223              1488.6260
 Red. masses --      1.3742                 2.0389                 1.1238
 Frc consts  --      1.5418                 2.5709                 1.4672
 IR Inten    --     60.3030               118.5755                22.7413

                     22                     23                     24
                      A                      A                      A
 Frequencies --   1641.2373              3088.6885              3169.8003
 Red. masses --      1.0936                 1.0627                 1.1044
 Frc consts  --      1.7355                 5.9732                 6.5377
 IR Inten    --     36.1992                23.0206                 7.8264

                     25                     26                     27
                      A                      A                      A
 Frequencies --   3524.3153              3627.2084              3651.2204
 Red. masses --      1.0513                 1.0928                 1.0643
 Frc consts  --      7.6935                 8.4712                 8.3598
 IR Inten    --      5.9530                16.3802               133.9909

 - Thermochemistry -
 -------------------
 Temperature   298.150 Kelvin.  Pressure   1.00000 Atm.
 Atom     1 has atomic number  8 and mass  15.99491

 Molecular mass:    97.03392 amu.
 Principal axes and moments of inertia in atomic units:
                           1         2         3
     Eigenvalues --   346.42998 645.05693 651.73264
           X            0.99945   0.00769   0.03225
           Y           -0.03290   0.10857   0.99354
           Z           -0.00414   0.99406  -0.10877
 This molecule is an asymmetric top.
 Rotational symmetry number  1.
 Rotational temperatures (Kelvin)      0.25002     0.13427     0.13290
 Rotational constants (GHZ):           5.20954     2.79780     2.76914
 Zero-point vibrational energy     218120.2 (Joules/Mol)
                                   52.13198 (Kcal/Mol)
 Warning -- explicit consideration of   8 degrees of freedom as
           vibrations may cause significant error
 Vibrational temperatures:    167.76   345.01   429.10   530.65   593.19
          (Kelvin)            743.29   773.40   860.23   922.87  1156.44
                             1249.84  1377.82  1491.05  1559.40  1623.14
                             1745.53  1842.62  1915.61  1985.41  2104.82
                             2141.80  2361.37  4443.93  4560.64  5070.70
                             5218.74  5253.29

 Zero-point correction=                           0.083078 (Hartree/Particle)
 Thermal correction to Energy=                    0.089207
 Thermal correction to Enthalpy=                  0.090151
 Thermal correction to Gibbs Free Energy=         0.053402
 Sum of electronic and zero-point Energies=           -407.901030
 Sum of electronic and thermal Energies=              -407.894901
 Sum of electronic and thermal Enthalpies=            -407.893957
 Sum of electronic and thermal Free Energies=         -407.930706

                     E (Thermal)             CV                S
                      KCal/Mol        Cal/Mol-Kelvin    Cal/Mol-Kelvin
 Total                   55.978             22.010             77.344
 Electronic               0.000              0.000              0.000
 Translational            0.889              2.981             39.628
 Rotational               0.889              2.981             26.479
 Vibrational             54.201             16.048             11.237
 Vibration     1          0.608              1.936              3.156
 Vibration     2          0.657              1.780              1.804
 Vibration     3          0.691              1.677              1.427
 Vibration     4          0.741              1.536              1.085
 Vibration     5          0.776              1.444              0.919
 Vibration     6          0.872              1.213              0.618
 Vibration     7          0.893              1.167              0.571
 Vibration     8          0.956              1.036              0.453

 Optimization completed.
    -- Stationary point found.
 Normal termination of Gaussian 16 at Tue Feb  8 12:57:55 2022.
