 Gaussian 16, Revision A.03,
 Gaussian 16:  ES64L-G16RevA.03 25-Dec-2016

 --------------------------
 # MP2/aug-cc-pVDZ opt freq
 --------------------------

 --------
 F H Open
 --------
 Symbolic Z-matrix:
 Charge =  0 Multiplicity = 1

 SCF Done:  E(RHF) =  -406.897421694     A.U. after   12 cycles
 E2 =    -0.1072447130D+01 EUMP2 =    -0.40796986882453D+03
 SCF Done:  E(RHF) =  -406.902644294     A.U. after   11 cycles
 E2 =    -0.1074952176D+01 EUMP2 =    -0.40797759647005D+03
 SCF Done:  E(RHF) =  -406.904132414     A.U. after   10 cycles
 E2 =    -0.1074788756D+01 EUMP2 =    -0.40797892116966D+03
 SCF Done:  E(RHF) =  -406.904381525     A.U. after   11 cycles
 E2 =    -0.1074953415D+01 EUMP2 =    -0.40797933494058D+03
 SCF Done:  E(RHF) =  -406.904469311     A.U. after   10 cycles
 E2 =    -0.1074992146D+01 EUMP2 =    -0.40797946145737D+03
 SCF Done:  E(RHF) =  -406.904540619     A.U. after   10 cycles
 E2 =    -0.1074968978D+01 EUMP2 =    -0.40797950959683D+03
 SCF Done:  E(RHF) =  -406.904604791     A.U. after    9 cycles
 E2 =    -0.1074914828D+01 EUMP2 =    -0.40797951961912D+03
 SCF Done:  E(RHF) =  -406.904678626     A.U. after    8 cycles
 E2 =    -0.1074844149D+01 EUMP2 =    -0.40797952277485D+03
 SCF Done:  E(RHF) =  -406.904693601     A.U. after    7 cycles
 E2 =    -0.1074829460D+01 EUMP2 =    -0.40797952306116D+03
 Optimization completed.
    -- Stationary point found.
 Normal termination of Gaussian 16 at Tue Feb  8 12:53:35 2022.

 ----------------------------------------------------------------------
 #N Geom=AllCheck Guess=TCheck SCRF=Check GenChk RMP2(FC)/Aug-CC-pVDZ F
 req
 ----------------------------------------------------------------------

 Structure from the checkpoint file:  "/gscratch/scrubbed/gds001/Gau-23092.chk"
 --------
 F H Open
 --------
 Charge =  0 Multiplicity = 1

                         Standard orientation:
 ---------------------------------------------------------------------
 Center     Atomic      Atomic             Coordinates (Angstroms)
 Number     Number       Type             X           Y           Z
 ---------------------------------------------------------------------
      1          8           0       -0.635111   -0.878204   -1.041444
      2          6           0       -0.416250    0.013023   -0.037468
      3          1           0       -1.468630   -1.337685   -0.850366
      4          6           0        0.905169    0.741398   -0.184636
      5          9           0       -0.468964   -0.629619    1.196637
      6          9           0       -1.447581    0.942035    0.018005
      7          7           0        2.010517   -0.207314   -0.056627
      8          1           0        0.890533    1.559212    0.557852
      9          1           0        0.916738    1.183241   -1.191275
     10          1           0        2.095630   -0.515039    0.912112
     11          1           0        2.888394    0.248835   -0.299529
 ---------------------------------------------------------------------

 SCF Done:  E(RHF) =  -406.904693601     A.U. after    1 cycles
 E2 =    -0.1074829473D+01 EUMP2 =    -0.40797952307372D+03
 E2 =    -0.1074829473D+01 EUMP2 =    -0.40797952307372D+03

 The electronic state is 1-A.
 Alpha  occ. eigenvalues --  -26.32469 -26.32359 -20.61669 -15.56932 -11.47455
 Alpha  occ. eigenvalues --  -11.28796  -1.66704  -1.59990  -1.42507  -1.20081
 Alpha  occ. eigenvalues --   -1.00778  -0.87011  -0.79809  -0.77417  -0.74335
 Alpha  occ. eigenvalues --   -0.69252  -0.67573  -0.65583  -0.62845  -0.62206
 Alpha  occ. eigenvalues --   -0.59113  -0.56944  -0.54219  -0.53335  -0.41435
 Alpha virt. eigenvalues --    0.03320   0.04425   0.05256   0.05558   0.07393
 Alpha virt. eigenvalues --    0.10248   0.11470   0.12168   0.13260   0.15016
 Alpha virt. eigenvalues --    0.16537   0.17154   0.18381   0.19264   0.20146

 Mulliken charges:
               1
     1  O   -0.672374
     2  C    1.821242
     3  H    0.122561
     4  C    0.575472
     5  F   -0.701731
     6  F   -0.689528
     7  N   -0.416271
     8  H   -0.021973
     9  H   -0.054549
    10  H    0.044194
    11  H   -0.007042
 Sum of Mulliken charges =  -0.00000

 Dipole moment (field-independent basis, Debye):
    X=              1.1603    Y=              0.6925    Z=              0.0753  Tot=              1.3533
 Quadrupole moment (field-independent basis, Debye-Ang):
   XX=            -29.4860   YY=            -34.3552   ZZ=            -36.3072
   XY=              6.5421   XZ=              2.9804   YZ=             -0.7528

  Exact polarizability:  46.104  -0.138  42.202   0.601   0.582  39.974
 Approx polarizability:  34.498  -0.272  34.338  -0.131  -0.279  34.239

                      1                      2                      3
                      A                      A                      A
 Frequencies --    117.5385               203.1378               247.6470
 Red. masses --      3.1705                 1.3941                 2.6483
 Frc consts  --      0.0258                 0.0339                 0.0957
 IR Inten    --      0.7688                22.6121                22.6206

                      4                      5                      6
                      A                      A                      A
 Frequencies --    293.9444               366.2308               427.3636
 Red. masses --      1.2228                 2.8206                 4.8485
 Frc consts  --      0.0623                 0.2229                 0.5217
 IR Inten    --     88.8813                11.6143                22.5091

                      7                      8                      9
                      A                      A                      A
 Frequencies --    524.3052               540.7522               610.6883
 Red. masses --      6.5044                 6.2932                 5.5945
 Frc consts  --      1.0535                 1.0842                 1.2293
 IR Inten    --      8.4996                16.9521                17.7931

                     10                     11                     12
                      A                      A                      A
 Frequencies --    796.2828               837.9021               970.9689
 Red. masses --      3.7044                 1.3563                 2.1098
 Frc consts  --      1.3839                 0.5611                 1.1719
 IR Inten    --     50.5002               100.9833                85.7203

                     13                     14                     15
                      A                      A                      A
 Frequencies --   1027.7916              1066.8780              1124.0543
 Red. masses --      2.5319                 3.0601                 2.6070
 Frc consts  --      1.5758                 2.0522                 1.9407
 IR Inten    --    155.2646               125.2159                17.5465

                     16                     17                     18
                      A                      A                      A
 Frequencies --   1181.6584              1260.5830              1348.9426
 Red. masses --      1.5251                 2.1132                 1.4476
 Frc consts  --      1.2547                 1.9785                 1.5520
 IR Inten    --     90.7612               134.1677               103.9827

                     19                     20                     21
                      A                      A                      A
 Frequencies --   1380.4765              1486.2169              1497.4162
 Red. masses --      1.4563                 1.1087                 2.4033
 Frc consts  --      1.6352                 1.4428                 3.1750
 IR Inten    --     24.4109                 0.3066                42.0695

                     22                     23                     24
                      A                      A                      A
 Frequencies --   1643.0377              3062.4251              3159.3186
 Red. masses --      1.0959                 1.0665                 1.0983
 Frc consts  --      1.7431                 5.8933                 6.4587
 IR Inten    --     29.2705                35.2069                 7.0398

                     25                     26                     27
                      A                      A                      A
 Frequencies --   3521.6734              3623.9415              3786.0001
 Red. masses --      1.0508                 1.0926                 1.0651
 Frc consts  --      7.6781                 8.4545                 8.9948
 IR Inten    --      1.9656                 9.1558                75.2191

 - Thermochemistry -
 -------------------
 Temperature   298.150 Kelvin.  Pressure   1.00000 Atm.
 Atom     1 has atomic number  8 and mass  15.99491

 Molecular mass:    97.03392 amu.
 Principal axes and moments of inertia in atomic units:
                           1         2         3
     Eigenvalues --   349.74389 654.60398 662.47009
           X            0.99790   0.04243   0.04886
           Y           -0.06018   0.88610   0.45958
           Z           -0.02379  -0.46155   0.88679
 This molecule is an asymmetric top.
 Rotational symmetry number  1.
 Rotational temperatures (Kelvin)      0.24765     0.13231     0.13074
 Rotational constants (GHZ):           5.16018     2.75700     2.72426
 Zero-point vibrational energy     215968.9 (Joules/Mol)
                                   51.61780 (Kcal/Mol)
 Warning -- explicit consideration of   9 degrees of freedom as
           vibrations may cause significant error
 Vibrational temperatures:    169.11   292.27   356.31   422.92   526.92
          (Kelvin)            614.88   754.36   778.02   878.64  1145.67
                             1205.55  1397.01  1478.76  1535.00  1617.26
                             1700.14  1813.70  1940.83  1986.20  2138.33
                             2154.45  2363.96  4406.15  4545.55  5066.90
                             5214.04  5447.21

 Zero-point correction=                           0.082258 (Hartree/Particle)
 Thermal correction to Energy=                    0.088784
 Thermal correction to Enthalpy=                  0.089728
 Thermal correction to Gibbs Free Energy=         0.052191
 Sum of electronic and zero-point Energies=           -407.897265
 Sum of electronic and thermal Energies=              -407.890739
 Sum of electronic and thermal Enthalpies=            -407.889795
 Sum of electronic and thermal Free Energies=         -407.927332

                     E (Thermal)             CV                S
                      KCal/Mol        Cal/Mol-Kelvin    Cal/Mol-Kelvin
 Total                   55.713             22.900             79.004
 Electronic               0.000              0.000              0.000
 Translational            0.889              2.981             39.628
 Rotational               0.889              2.981             26.520
 Vibrational             53.935             16.938             12.856
 Vibration     1          0.608              1.935              3.140
 Vibration     2          0.639              1.835              2.104
 Vibration     3          0.661              1.767              1.747
 Vibration     4          0.689              1.685              1.451
 Vibration     5          0.739              1.542              1.096
 Vibration     6          0.789              1.411              0.867
 Vibration     7          0.879              1.196              0.600
 Vibration     8          0.896              1.160              0.564
 Vibration     9          0.970              1.009              0.432

                           ! Non-Optimized Parameters !
 Normal termination of Gaussian 16 at Tue Feb  8 12:58:19 2022.
