 Gaussian 16, Revision A.03,
 Gaussian 16:  ES64L-G16RevA.03 25-Dec-2016

 --------------------------
 # MP2/aug-cc-pVDZ opt freq
 --------------------------

 --------------
 F H Ref Closed
 --------------
 Symbolic Z-matrix:
 Charge =  0 Multiplicity = 1

 SCF Done:  E(RHF) =  -351.861433057     A.U. after   12 cycles
 E2 =    -0.9006856250D+00 EUMP2 =    -0.35276211868184D+03
 SCF Done:  E(RHF) =  -351.868701959     A.U. after   11 cycles
 E2 =    -0.8966120577D+00 EUMP2 =    -0.35276531401696D+03
 SCF Done:  E(RHF) =  -351.868981809     A.U. after   10 cycles
 E2 =    -0.8967621525D+00 EUMP2 =    -0.35276574396160D+03
 SCF Done:  E(RHF) =  -351.868891756     A.U. after    8 cycles
 E2 =    -0.8968856632D+00 EUMP2 =    -0.35276577741916D+03
 SCF Done:  E(RHF) =  -351.868862858     A.U. after    9 cycles
 E2 =    -0.8969239068D+00 EUMP2 =    -0.35276578676469D+03
 SCF Done:  E(RHF) =  -351.868856810     A.U. after    8 cycles
 E2 =    -0.8969322990D+00 EUMP2 =    -0.35276578910920D+03
 SCF Done:  E(RHF) =  -351.868826558     A.U. after    9 cycles
 E2 =    -0.8969678603D+00 EUMP2 =    -0.35276579441806D+03
 SCF Done:  E(RHF) =  -351.868780286     A.U. after    9 cycles
 E2 =    -0.8970207370D+00 EUMP2 =    -0.35276580102298D+03
 SCF Done:  E(RHF) =  -351.868780815     A.U. after    9 cycles
 E2 =    -0.8970274952D+00 EUMP2 =    -0.35276580831035D+03
 SCF Done:  E(RHF) =  -351.868829774     A.U. after    9 cycles
 E2 =    -0.8969819969D+00 EUMP2 =    -0.35276581177135D+03
 SCF Done:  E(RHF) =  -351.868849534     A.U. after    7 cycles
 E2 =    -0.8969625364D+00 EUMP2 =    -0.35276581207079D+03
 Optimization completed.
    -- Stationary point found.
 Normal termination of Gaussian 16 at Tue Feb  8 12:51:56 2022.

 ----------------------------------------------------------------------
 #N Geom=AllCheck Guess=TCheck SCRF=Check GenChk RMP2(FC)/Aug-CC-pVDZ F
 req
 ----------------------------------------------------------------------

 Structure from the checkpoint file:  "/gscratch/scrubbed/gds001/Gau-21873.chk"
 --------------
 F H Ref Closed
 --------------
 Charge =  0 Multiplicity = 1

                         Standard orientation:
 ---------------------------------------------------------------------
 Center     Atomic      Atomic             Coordinates (Angstroms)
 Number     Number       Type             X           Y           Z
 ---------------------------------------------------------------------
      1          8           0       -0.809245   -1.016603   -0.538735
      2          6           0       -0.027933   -0.003805   -0.020035
      3          1           0       -0.665609   -1.806774    0.002664
      4          6           0        1.466962   -0.212191   -0.102805
      5          9           0       -0.382833    0.215109    1.307623
      6          9           0       -0.391676    1.120909   -0.706423
      7          1           0        1.747482   -1.105389    0.473441
      8          1           0        1.979448    0.664035    0.315120
      9          1           0        1.749048   -0.347245   -1.155114
 ---------------------------------------------------------------------

 SCF Done:  E(RHF) =  -351.868849534     A.U. after    1 cycles
 E2 =    -0.8969625264D+00 EUMP2 =    -0.35276581206088D+03
 E2 =    -0.8969625264D+00 EUMP2 =    -0.35276581206088D+03

 The electronic state is 1-A.
 Alpha  occ. eigenvalues --  -26.32622 -26.32245 -20.61786 -11.48055 -11.26310
 Alpha  occ. eigenvalues --   -1.67003  -1.60350  -1.42028  -1.04969  -0.89847
 Alpha  occ. eigenvalues --   -0.79753  -0.76764  -0.74156  -0.68004  -0.65397
 Alpha  occ. eigenvalues --   -0.63963  -0.62863  -0.58114  -0.57555  -0.56188
 Alpha  occ. eigenvalues --   -0.51376
 Alpha virt. eigenvalues --    0.02885   0.04581   0.05541   0.06333   0.09853
 Alpha virt. eigenvalues --    0.11590   0.11925   0.13176   0.14728   0.15786
 Alpha virt. eigenvalues --    0.16628   0.19570   0.21125   0.22412   0.25440

 Mulliken charges:
               1
     1  O   -0.716025
     2  C    1.767420
     3  H    0.158149
     4  C    0.077787
     5  F   -0.678494
     6  F   -0.663766
     7  H   -0.018515
     8  H    0.023583
     9  H    0.049861
 Sum of Mulliken charges =   0.00000

 Dipole moment (field-independent basis, Debye):
    X=              2.4259    Y=             -2.2912    Z=              0.3315  Tot=              3.3533
 Quadrupole moment (field-independent basis, Debye-Ang):
   XX=            -27.8418   YY=            -25.6163   ZZ=            -31.4204
   XY=              0.7044   XZ=             -0.8567   YZ=             -1.0824

  Exact polarizability:  34.524   0.560  34.212   0.107  -0.142  32.785
 Approx polarizability:  25.852   0.260  28.312   0.342  -0.642  27.670

                      1                      2                      3
                      A                      A                      A
 Frequencies --    169.3836               242.8219               362.5682
 Red. masses --      1.0870                 1.0418                 3.7800
 Frc consts  --      0.0184                 0.0362                 0.2928
 IR Inten    --    113.3693                 0.0669                 0.3197

                      4                      5                      6
                      A                      A                      A
 Frequencies --    373.8447               516.0247               525.9137
 Red. masses --      3.6873                 4.7584                 6.2729
 Frc consts  --      0.3036                 0.7465                 1.0222
 IR Inten    --      5.4807                10.8517                 2.3320

                      7                      8                      9
                      A                      A                      A
 Frequencies --    588.7330               815.7830               933.5461
 Red. masses --      6.3532                 7.0423                 2.3733
 Frc consts  --      1.2974                 2.7613                 1.2186
 IR Inten    --     17.0049                15.5297                90.4976

                     10                     11                     12
                      A                      A                      A
 Frequencies --    982.5616              1103.9607              1192.2477
 Red. masses --      1.7783                 1.6425                 3.1397
 Frc consts  --      1.0115                 1.1794                 2.6295
 IR Inten    --     43.2422               115.0726               237.7503

                     13                     14                     15
                      A                      A                      A
 Frequencies --   1285.1444              1355.8268              1423.8142
 Red. masses --      3.3275                 1.6786                 1.7843
 Frc consts  --      3.2380                 1.8180                 2.1312
 IR Inten    --    151.9091                96.8543               102.3567

                     16                     17                     18
                      A                      A                      A
 Frequencies --   1472.2857              1483.4653              3094.4347
 Red. masses --      1.0512                 1.0736                 1.0356
 Frc consts  --      1.3425                 1.3921                 5.8424
 IR Inten    --      0.6356                 1.4522                 2.3640

                     19                     20                     21
                      A                      A                      A
 Frequencies --   3197.1770              3211.4499              3821.4445
 Red. masses --      1.1028                 1.1045                 1.0658
 Frc consts  --      6.6418                 6.7115                 9.1702
 IR Inten    --      7.0980                 3.7698                69.4547

 - Thermochemistry -
 -------------------
 Temperature   298.150 Kelvin.  Pressure   1.00000 Atm.
 Atom     1 has atomic number  8 and mass  15.99491

 Molecular mass:    82.02302 amu.
 Principal axes and moments of inertia in atomic units:
                           1         2         3
     Eigenvalues --   339.46503 352.64776 359.98263
           X            0.99191  -0.12575   0.01719
           Y           -0.05599  -0.31198   0.94844
           Z            0.11391   0.94173   0.31649
 This molecule is an asymmetric top.
 Rotational symmetry number  1.
 Rotational temperatures (Kelvin)      0.25515     0.24561     0.24061
 Rotational constants (GHZ):           5.31643     5.11769     5.01341
 Zero-point vibrational energy     168388.9 (Joules/Mol)
                                   40.24592 (Kcal/Mol)
 Warning -- explicit consideration of   7 degrees of freedom as
           vibrations may cause significant error
 Vibrational temperatures:    243.71   349.37   521.65   537.88   742.44
          (Kelvin)            756.67   847.06  1173.73  1343.16  1413.69
                             1588.35  1715.38  1849.04  1950.73  2048.55
                             2118.29  2134.38  4452.20  4600.02  4620.56
                             5498.21

 Zero-point correction=                           0.064136 (Hartree/Particle)
 Thermal correction to Energy=                    0.069584
 Thermal correction to Enthalpy=                  0.070528
 Thermal correction to Gibbs Free Energy=         0.035798
 Sum of electronic and zero-point Energies=           -352.701676
 Sum of electronic and thermal Energies=              -352.696228
 Sum of electronic and thermal Enthalpies=            -352.695284
 Sum of electronic and thermal Free Energies=         -352.730014

                     E (Thermal)             CV                S
                      KCal/Mol        Cal/Mol-Kelvin    Cal/Mol-Kelvin
 Total                   43.665             18.657             73.095
 Electronic               0.000              0.000              0.000
 Translational            0.889              2.981             39.127
 Rotational               0.889              2.981             25.269
 Vibrational             41.887             12.695              8.699
 Vibration     1          0.625              1.880              2.442
 Vibration     2          0.659              1.775              1.782
 Vibration     3          0.736              1.549              1.111
 Vibration     4          0.745              1.526              1.064
 Vibration     5          0.871              1.214              0.619
 Vibration     6          0.881              1.193              0.596
 Vibration     7          0.946              1.056              0.469

 Optimization completed.
    -- Stationary point found.
 Normal termination of Gaussian 16 at Tue Feb  8 12:54:10 2022.
