 Gaussian 16, Revision A.03,
 Gaussian 16:  ES64L-G16RevA.03 25-Dec-2016

 --------------------------
 # MP2/aug-cc-pVDZ opt freq
 --------------------------

 ------------
 F H Ref Open
 ------------
 Symbolic Z-matrix:
 Charge =  0 Multiplicity = 1

 SCF Done:  E(RHF) =  -351.872468651     A.U. after   11 cycles
 E2 =    -0.8942447230D+00 EUMP2 =    -0.35276671337357D+03
 SCF Done:  E(RHF) =  -351.873379185     A.U. after   11 cycles
 E2 =    -0.8971149729D+00 EUMP2 =    -0.35277049415826D+03
 SCF Done:  E(RHF) =  -351.873893070     A.U. after   10 cycles
 E2 =    -0.8972468284D+00 EUMP2 =    -0.35277113989872D+03
 SCF Done:  E(RHF) =  -351.873972974     A.U. after    9 cycles
 E2 =    -0.8972488395D+00 EUMP2 =    -0.35277122181315D+03
 SCF Done:  E(RHF) =  -351.873973163     A.U. after    8 cycles
 E2 =    -0.8972550552D+00 EUMP2 =    -0.35277122821834D+03
 SCF Done:  E(RHF) =  -351.873958668     A.U. after    7 cycles
 E2 =    -0.8972699974D+00 EUMP2 =    -0.35277122866492D+03
 Optimization completed.
    -- Stationary point found.
 Normal termination of Gaussian 16 at Tue Feb  8 12:50:54 2022.

 ----------------------------------------------------------------------
 #N Geom=AllCheck Guess=TCheck SCRF=Check GenChk RMP2(FC)/Aug-CC-pVDZ F
 req
 ----------------------------------------------------------------------

 Structure from the checkpoint file:  "/gscratch/scrubbed/gds001/Gau-21968.chk"
 ------------
 F H Ref Open
 ------------
 Charge =  0 Multiplicity = 1

                         Standard orientation:
 ---------------------------------------------------------------------
 Center     Atomic      Atomic             Coordinates (Angstroms)
 Number     Number       Type             X           Y           Z
 ---------------------------------------------------------------------
      1          8           0        0.612137    1.255627   -0.000048
      2          6           0        0.008967    0.027766   -0.000002
      3          1           0        1.571891    1.109886   -0.000018
      4          6           0       -1.490458    0.152385    0.000008
      5          9           0        0.442142   -0.710183    1.095033
      6          9           0        0.442119   -0.710256   -1.094996
      7          1           0       -1.803665    0.700249    0.898001
      8          1           0       -1.931041   -0.852307    0.000034
      9          1           0       -1.803679    0.700206   -0.898006
 ---------------------------------------------------------------------

 SCF Done:  E(RHF) =  -351.873958668     A.U. after    1 cycles
 E2 =    -0.8972699968D+00 EUMP2 =    -0.35277122866428D+03
 E2 =    -0.8972699967D+00 EUMP2 =    -0.35277122866428D+03

 The electronic state is 1-A.
 Alpha  occ. eigenvalues --  -26.32354 -26.32352 -20.62063 -11.47889 -11.25707
 Alpha  occ. eigenvalues --   -1.66713  -1.59928  -1.42645  -1.05163  -0.88511
 Alpha  occ. eigenvalues --   -0.79783  -0.77333  -0.74026  -0.69034  -0.67130
 Alpha  occ. eigenvalues --   -0.62789  -0.59495  -0.57512  -0.57348  -0.55406
 Alpha  occ. eigenvalues --   -0.54049
 Alpha virt. eigenvalues --    0.03525   0.04575   0.05934   0.06138   0.09975
 Alpha virt. eigenvalues --    0.11470   0.11771   0.14290   0.15527   0.15689
 Alpha virt. eigenvalues --    0.16864   0.20123   0.21049   0.22839   0.23341

 Mulliken charges:
               1
     1  O   -0.680113
     2  C    1.653447
     3  H    0.130038
     4  C    0.133934
     5  F   -0.674582
     6  F   -0.674581
     7  H    0.044237
     8  H    0.023380
     9  H    0.044239
 Sum of Mulliken charges =   0.00000

 Dipole moment (field-independent basis, Debye):
    X=             -0.6332    Y=              0.8964    Z=              0.0000  Tot=              1.0975
 Quadrupole moment (field-independent basis, Debye-Ang):
   XX=            -22.6198   YY=            -30.9224   ZZ=            -31.1204
   XY=              2.0451   XZ=             -0.0000   YZ=              0.0000

  Exact polarizability:  35.797   0.581  33.097   0.000  -0.000  32.291
 Approx polarizability:  27.160   0.027  27.235   0.000  -0.000  26.996

                      1                      2                      3
                      A                      A                      A
 Frequencies --    217.2063               306.1605               366.6893
 Red. masses --      1.0514                 1.6521                 3.5118
 Frc consts  --      0.0292                 0.0912                 0.2782
 IR Inten    --      3.4415                48.5797                 6.5117

                      4                      5                      6
                      A                      A                      A
 Frequencies --    391.4817               527.4697               549.4034
 Red. masses --      1.7134                 6.7201                 6.7921
 Frc consts  --      0.1547                 1.1016                 1.2079
 IR Inten    --     59.9109                 3.1021                12.5337

                      7                      8                      9
                      A                      A                      A
 Frequencies --    565.4478               811.6906               918.2262
 Red. masses --      4.4968                 6.3527                 2.4467
 Frc consts  --      0.8471                 2.4660                 1.2154
 IR Inten    --     36.9953                20.7934               117.9463

                     10                     11                     12
                      A                      A                      A
 Frequencies --    982.7958              1114.7689              1158.6833
 Red. masses --      1.8490                 1.8560                 2.6659
 Frc consts  --      1.0522                 1.3589                 2.1087
 IR Inten    --     51.0187                57.2031               163.1147

                     13                     14                     15
                      A                      A                      A
 Frequencies --   1267.1387              1373.3392              1474.7016
 Red. masses --      3.5103                 1.2701                 1.0455
 Frc consts  --      3.3208                 1.4113                 1.3396
 IR Inten    --    322.2301                 9.5613                 1.4900

                     16                     17                     18
                      A                      A                      A
 Frequencies --   1479.1155              1481.4842              3104.9400
 Red. masses --      1.0587                 2.4779                 1.0350
 Frc consts  --      1.3646                 3.2043                 5.8790
 IR Inten    --      0.8031               105.9085                 1.3901

                     19                     20                     21
                      A                      A                      A
 Frequencies --   3213.4137              3218.0917              3786.2571
 Red. masses --      1.1038                 1.1043                 1.0651
 Frc consts  --      6.7157                 6.7380                 8.9960
 IR Inten    --      3.1590                 3.3676                71.7355

 - Thermochemistry -
 -------------------
 Temperature   298.150 Kelvin.  Pressure   1.00000 Atm.
 Atom     1 has atomic number  8 and mass  15.99491

 Molecular mass:    82.02302 amu.
 Principal axes and moments of inertia in atomic units:
                           1         2         3
     Eigenvalues --   337.06336 357.48283 357.53911
           X            0.97189   0.23544  -0.00144
           Y           -0.23545   0.97187  -0.00586
           Z            0.00002   0.00604   0.99998
 This molecule is an asymmetric top.
 Rotational symmetry number  1.
 Rotational temperatures (Kelvin)      0.25697     0.24229     0.24225
 Rotational constants (GHZ):           5.35431     5.04847     5.04767
 Zero-point vibrational energy     169322.5 (Joules/Mol)
                                   40.46904 (Kcal/Mol)
 Warning -- explicit consideration of   7 degrees of freedom as
           vibrations may cause significant error
 Vibrational temperatures:    312.51   440.50   527.58   563.25   758.91
          (Kelvin)            790.47   813.55  1167.84  1321.12  1414.02
                             1603.90  1667.09  1823.13  1975.93  2121.77
                             2128.12  2131.53  4467.32  4623.39  4630.12
                             5447.58

 Zero-point correction=                           0.064492 (Hartree/Particle)
 Thermal correction to Energy=                    0.069752
 Thermal correction to Enthalpy=                  0.070696
 Thermal correction to Gibbs Free Energy=         0.036426
 Sum of electronic and zero-point Energies=           -352.706737
 Sum of electronic and thermal Energies=              -352.701477
 Sum of electronic and thermal Enthalpies=            -352.700533
 Sum of electronic and thermal Free Energies=         -352.734803

                     E (Thermal)             CV                S
                      KCal/Mol        Cal/Mol-Kelvin    Cal/Mol-Kelvin
 Total                   43.770             18.432             72.127
 Electronic               0.000              0.000              0.000
 Translational            0.889              2.981             39.127
 Rotational               0.889              2.981             25.269
 Vibrational             41.992             12.470              7.731
 Vibration     1          0.646              1.815              1.982
 Vibration     2          0.697              1.662              1.383
 Vibration     3          0.740              1.541              1.094
 Vibration     4          0.759              1.488              0.994
 Vibration     5          0.882              1.189              0.593
 Vibration     6          0.905              1.141              0.545
 Vibration     7          0.921              1.106              0.513

 Optimization completed.
    -- Stationary point found.
 Normal termination of Gaussian 16 at Tue Feb  8 12:53:04 2022.
