 Gaussian 16, Revision A.03,
 Gaussian 16:  ES64L-G16RevA.03 25-Dec-2016

 --------------------------
 # MP2/aug-cc-pVDZ opt freq
 --------------------------

 ----------
 H F Closed
 ----------
 Symbolic Z-matrix:
 Charge =  0 Multiplicity = 1

 SCF Done:  E(RHF) =  -406.894563081     A.U. after   12 cycles
 E2 =    -0.1073295346D+01 EUMP2 =    -0.40796785842741D+03
 SCF Done:  E(RHF) =  -406.896645326     A.U. after   11 cycles
 E2 =    -0.1076553914D+01 EUMP2 =    -0.40797319923956D+03
 SCF Done:  E(RHF) =  -406.898279127     A.U. after   11 cycles
 E2 =    -0.1076427313D+01 EUMP2 =    -0.40797470643986D+03
 SCF Done:  E(RHF) =  -406.899338042     A.U. after   11 cycles
 E2 =    -0.1075938396D+01 EUMP2 =    -0.40797527643892D+03
 SCF Done:  E(RHF) =  -406.899740235     A.U. after   10 cycles
 E2 =    -0.1075675934D+01 EUMP2 =    -0.40797541616939D+03
 SCF Done:  E(RHF) =  -406.899829117     A.U. after    9 cycles
 E2 =    -0.1075631324D+01 EUMP2 =    -0.40797546044105D+03
 SCF Done:  E(RHF) =  -406.899828441     A.U. after    8 cycles
 E2 =    -0.1075640765D+01 EUMP2 =    -0.40797546920523D+03
 SCF Done:  E(RHF) =  -406.899821198     A.U. after    8 cycles
 E2 =    -0.1075651103D+01 EUMP2 =    -0.40797547230126D+03
 SCF Done:  E(RHF) =  -406.899813428     A.U. after    7 cycles
 E2 =    -0.1075659245D+01 EUMP2 =    -0.40797547267268D+03
 SCF Done:  E(RHF) =  -406.899815019     A.U. after    7 cycles
 E2 =    -0.1075657930D+01 EUMP2 =    -0.40797547294832D+03
 Optimization completed.
    -- Stationary point found.
 Normal termination of Gaussian 16 at Tue Feb  8 12:53:58 2022.

 ----------------------------------------------------------------------
 #N Geom=AllCheck Guess=TCheck SCRF=Check GenChk RMP2(FC)/Aug-CC-pVDZ F
 req
 ----------------------------------------------------------------------

 Structure from the checkpoint file:  "/gscratch/scrubbed/gds001/Gau-2063.chk"
 ----------
 H F Closed
 ----------
 Charge =  0 Multiplicity = 1

                         Standard orientation:
 ---------------------------------------------------------------------
 Center     Atomic      Atomic             Coordinates (Angstroms)
 Number     Number       Type             X           Y           Z
 ---------------------------------------------------------------------
      1          8           0       -2.030161    0.068626    0.100188
      2          6           0       -0.922991   -0.662478   -0.402326
      3          1           0       -1.836599    1.006718   -0.056275
      4          6           0        0.395405   -0.015752   -0.003193
      5          1           0       -0.937245   -0.740547   -1.505507
      6          1           0       -0.964099   -1.672431    0.026434
      7          7           0        0.493470    1.327076   -0.460230
      8          9           0        1.428821   -0.831420   -0.486669
      9          9           0        0.546893   -0.001590    1.362384
     10          1           0        0.620260    1.343760   -1.472053
     11          1           0        1.288766    1.790434   -0.020816
 ---------------------------------------------------------------------

 SCF Done:  E(RHF) =  -406.899815019     A.U. after    1 cycles
 E2 =    -0.1075657939D+01 EUMP2 =    -0.40797547295739D+03
 E2 =    -0.1075657939D+01 EUMP2 =    -0.40797547295739D+03

 The electronic state is 1-A.
 Alpha  occ. eigenvalues --  -26.32880 -26.32216 -20.58331 -15.60341 -11.45606
 Alpha  occ. eigenvalues --  -11.31155  -1.66369  -1.60080  -1.37987  -1.23870
 Alpha  occ. eigenvalues --   -1.01315  -0.87580  -0.77629  -0.77382  -0.75230
 Alpha  occ. eigenvalues --   -0.69081  -0.68569  -0.65147  -0.64113  -0.62567
 Alpha  occ. eigenvalues --   -0.60757  -0.59793  -0.51667  -0.47750  -0.46554
 Alpha virt. eigenvalues --    0.02808   0.04580   0.05410   0.05992   0.07099
 Alpha virt. eigenvalues --    0.09636   0.11855   0.12052   0.13385   0.14915
 Alpha virt. eigenvalues --    0.15314   0.17261   0.17581   0.18461   0.19747

 Mulliken charges:
               1
     1  O   -0.686661
     2  C    0.900031
     3  H    0.187070
     4  C    1.600497
     5  H   -0.053497
     6  H   -0.065302
     7  N   -0.579669
     8  F   -0.709030
     9  F   -0.711561
    10  H    0.091664
    11  H    0.026459
 Sum of Mulliken charges =  -0.00000

 Dipole moment (field-independent basis, Debye):
    X=              0.9030    Y=              1.6607    Z=             -2.4350  Tot=              3.0827
 Quadrupole moment (field-independent basis, Debye-Ang):
   XX=            -39.8883   YY=            -31.1628   ZZ=            -34.2411
   XY=              3.2610   XZ=              0.9285   YZ=             -1.4327

  Exact polarizability:  43.999   0.015  43.484  -0.871   0.297  40.103
 Approx polarizability:  33.459  -0.569  35.039  -0.720   0.314  34.363

                      1                      2                      3
                      A                      A                      A
 Frequencies --    135.2728               229.2636               267.2861
 Red. masses --      3.7751                 5.6924                 1.1761
 Frc consts  --      0.0407                 0.1763                 0.0495
 IR Inten    --      4.9043                 3.5889                 5.6006

                      4                      5                      6
                      A                      A                      A
 Frequencies --    355.3855               385.2595               439.3858
 Red. masses --      2.1952                 2.0438                 1.9432
 Frc consts  --      0.1634                 0.1787                 0.2210
 IR Inten    --     19.9060                40.7679                66.4011

                      7                      8                      9
                      A                      A                      A
 Frequencies --    479.0522               526.2350               602.2261
 Red. masses --      3.7843                 4.2565                 4.4599
 Frc consts  --      0.5117                 0.6945                 0.9530
 IR Inten    --     17.3490                28.2841                58.0219

                     10                     11                     12
                      A                      A                      A
 Frequencies --    822.7944               837.4066               962.7444
 Red. masses --      5.4046                 1.6385                 1.6881
 Frc consts  --      2.1557                 0.6770                 0.9219
 IR Inten    --     18.5993                83.2877                16.0711

                     13                     14                     15
                      A                      A                      A
 Frequencies --   1026.7397              1073.3720              1104.4214
 Red. masses --      2.8802                 3.7367                 2.9582
 Frc consts  --      1.7890                 2.5365                 2.1260
 IR Inten    --    129.9839               261.9572                46.2785

                     16                     17                     18
                      A                      A                      A
 Frequencies --   1181.2007              1312.0778              1357.2007
 Red. masses --      1.2925                 1.9218                 1.6204
 Frc consts  --      1.0625                 1.9493                 1.7586
 IR Inten    --     29.1660                62.1159                48.8553

                     19                     20                     21
                      A                      A                      A
 Frequencies --   1379.1873              1451.5226              1491.0108
 Red. masses --      1.7541                 1.8081                 1.1013
 Frc consts  --      1.9659                 2.2445                 1.4425
 IR Inten    --     82.8855                24.5659                 5.3403

                     22                     23                     24
                      A                      A                      A
 Frequencies --   1628.9658              3055.9551              3176.8234
 Red. masses --      1.1270                 1.0682                 1.0974
 Frc consts  --      1.7620                 5.8775                 6.5256
 IR Inten    --     54.8176                38.1513                 8.5675

                     25                     26                     27
                      A                      A                      A
 Frequencies --   3522.6472              3629.8219              3772.0918
 Red. masses --      1.0497                 1.0938                 1.0657
 Frc consts  --      7.6747                 8.4911                 8.9343
 IR Inten    --     16.3556                25.4826                53.4475

 - Thermochemistry -
 -------------------
 Temperature   298.150 Kelvin.  Pressure   1.00000 Atm.
 Atom     1 has atomic number  8 and mass  15.99491

 Molecular mass:    97.03392 amu.
 Principal axes and moments of inertia in atomic units:
                           1         2         3
     Eigenvalues --   362.07222 649.49606 664.69361
           X            0.99830   0.05683  -0.01314
           Y           -0.05768   0.92821  -0.36756
           Z           -0.00869   0.36770   0.92991
 This molecule is an asymmetric top.
 Rotational symmetry number  1.
 Rotational temperatures (Kelvin)      0.23922     0.13336     0.13031
 Rotational constants (GHZ):           4.98448     2.77868     2.71515
 Zero-point vibrational energy     216556.1 (Joules/Mol)
                                   51.75815 (Kcal/Mol)
 Warning -- explicit consideration of   9 degrees of freedom as
           vibrations may cause significant error
 Vibrational temperatures:    194.63   329.86   384.57   511.32   554.30
          (Kelvin)            632.18   689.25   757.13   866.47  1183.82
                             1204.84  1385.17  1477.25  1544.34  1589.02
                             1699.48  1887.79  1952.71  1984.34  2088.42
                             2145.23  2343.72  4396.84  4570.74  5068.30
                             5222.50  5427.20

 Zero-point correction=                           0.082482 (Hartree/Particle)
 Thermal correction to Energy=                    0.088847
 Thermal correction to Enthalpy=                  0.089791
 Thermal correction to Gibbs Free Energy=         0.052671
 Sum of electronic and zero-point Energies=           -407.892991
 Sum of electronic and thermal Energies=              -407.886626
 Sum of electronic and thermal Enthalpies=            -407.885682
 Sum of electronic and thermal Free Energies=         -407.922802

                     E (Thermal)             CV                S
                      KCal/Mol        Cal/Mol-Kelvin    Cal/Mol-Kelvin
 Total                   55.752             22.738             78.126
 Electronic               0.000              0.000              0.000
 Translational            0.889              2.981             39.628
 Rotational               0.889              2.981             26.550
 Vibrational             53.975             16.776             11.948
 Vibration     1          0.613              1.918              2.870
 Vibration     2          0.652              1.796              1.885
 Vibration     3          0.672              1.733              1.614
 Vibration     4          0.731              1.564              1.142
 Vibration     5          0.754              1.502              1.018
 Vibration     6          0.799              1.384              0.829
 Vibration     7          0.835              1.297              0.713
 Vibration     8          0.881              1.192              0.596
 Vibration     9          0.961              1.027              0.446

 Optimization completed.
    -- Stationary point found.
 Normal termination of Gaussian 16 at Tue Feb  8 12:58:40 2022.
