 Gaussian 16, Revision A.03,
 Gaussian 16:  ES64L-G16RevA.03 25-Dec-2016

 --------------------------
 # MP2/aug-cc-pVDZ opt freq
 --------------------------

 --------
 H F Open
 --------
 Symbolic Z-matrix:
 Charge =  0 Multiplicity = 1

 SCF Done:  E(RHF) =  -406.871613271     A.U. after   12 cycles
 E2 =    -0.1066054856D+01 EUMP2 =    -0.40793766812721D+03
 SCF Done:  E(RHF) =  -406.891814828     A.U. after   11 cycles
 E2 =    -0.1074147981D+01 EUMP2 =    -0.40796596280877D+03
 SCF Done:  E(RHF) =  -406.894085518     A.U. after   11 cycles
 E2 =    -0.1075149913D+01 EUMP2 =    -0.40796923543128D+03
 SCF Done:  E(RHF) =  -406.894594879     A.U. after   11 cycles
 E2 =    -0.1075432858D+01 EUMP2 =    -0.40797002773699D+03
 SCF Done:  E(RHF) =  -406.894985215     A.U. after   10 cycles
 E2 =    -0.1075241738D+01 EUMP2 =    -0.40797022695280D+03
 SCF Done:  E(RHF) =  -406.895150371     A.U. after   10 cycles
 E2 =    -0.1075184984D+01 EUMP2 =    -0.40797033535440D+03
 SCF Done:  E(RHF) =  -406.895200051     A.U. after   10 cycles
 E2 =    -0.1075169289D+01 EUMP2 =    -0.40797036933939D+03
 SCF Done:  E(RHF) =  -406.895193114     A.U. after   10 cycles
 E2 =    -0.1075194265D+01 EUMP2 =    -0.40797038737971D+03
 SCF Done:  E(RHF) =  -406.895171287     A.U. after    9 cycles
 E2 =    -0.1075221726D+01 EUMP2 =    -0.40797039301258D+03
 SCF Done:  E(RHF) =  -406.895173665     A.U. after    8 cycles
 E2 =    -0.1075221202D+01 EUMP2 =    -0.40797039486714D+03
 SCF Done:  E(RHF) =  -406.895175210     A.U. after    7 cycles
 E2 =    -0.1075219994D+01 EUMP2 =    -0.40797039520375D+03
 SCF Done:  E(RHF) =  -406.895183393     A.U. after    8 cycles
 E2 =    -0.1075212182D+01 EUMP2 =    -0.40797039557587D+03
 SCF Done:  E(RHF) =  -406.895192607     A.U. after    8 cycles
 E2 =    -0.1075203298D+01 EUMP2 =    -0.40797039590563D+03
 SCF Done:  E(RHF) =  -406.895195997     A.U. after    8 cycles
 E2 =    -0.1075200111D+01 EUMP2 =    -0.40797039610818D+03
 SCF Done:  E(RHF) =  -406.895192438     A.U. after    7 cycles
 E2 =    -0.1075203766D+01 EUMP2 =    -0.40797039620428D+03
 Optimization completed.
    -- Stationary point found.
 Normal termination of Gaussian 16 at Tue Feb  8 12:56:11 2022.

 ----------------------------------------------------------------------
 #N Geom=AllCheck Guess=TCheck SCRF=Check GenChk RMP2(FC)/Aug-CC-pVDZ F
 req
 ----------------------------------------------------------------------

 Structure from the checkpoint file:  "/gscratch/scrubbed/gds001/Gau-23439.chk"
 --------
 H F Open
 --------
 Charge =  0 Multiplicity = 1

                         Standard orientation:
 ---------------------------------------------------------------------
 Center     Atomic      Atomic             Coordinates (Angstroms)
 Number     Number       Type             X           Y           Z
 ---------------------------------------------------------------------
      1          8           0       -1.974106    0.240814    0.103881
      2          6           0       -0.936433   -0.575432   -0.429123
      3          1           0       -2.795896   -0.265868    0.070439
      4          6           0        0.402050    0.007728   -0.003035
      5          1           0       -0.959303   -0.604788   -1.533371
      6          1           0       -0.968578   -1.606603   -0.042965
      7          7           0        0.593439    1.355620   -0.354832
      8          9           0        1.377870   -0.853495   -0.557532
      9          9           0        0.577337   -0.113671    1.356890
     10          1           0        0.444458    1.505395   -1.350071
     11          1           0        1.527542    1.666723   -0.092534
 ---------------------------------------------------------------------

 SCF Done:  E(RHF) =  -406.895192438     A.U. after    1 cycles
 E2 =    -0.1075203769D+01 EUMP2 =    -0.40797039620705D+03
 E2 =    -0.1075203769D+01 EUMP2 =    -0.40797039620705D+03

 The electronic state is 1-A.
 Alpha  occ. eigenvalues --  -26.31644 -26.30828 -20.58982 -15.58555 -11.44780
 Alpha  occ. eigenvalues --  -11.31527  -1.65014  -1.58585  -1.38357  -1.22759
 Alpha  occ. eigenvalues --   -1.01345  -0.86534  -0.76715  -0.75203  -0.73901
 Alpha  occ. eigenvalues --   -0.70525  -0.66821  -0.65875  -0.62883  -0.61884
 Alpha  occ. eigenvalues --   -0.61240  -0.57540  -0.51787  -0.47540  -0.45200
 Alpha virt. eigenvalues --    0.02984   0.04028   0.05309   0.05698   0.07251
 Alpha virt. eigenvalues --    0.09811   0.11725   0.12558   0.14103   0.15046
 Alpha virt. eigenvalues --    0.15605   0.16783   0.17529   0.18405   0.20481

 Mulliken charges:
               1
     1  O   -0.652543
     2  C    0.835052
     3  H    0.139265
     4  C    1.622967
     5  H   -0.050527
     6  H   -0.059605
     7  N   -0.458464
     8  F   -0.723812
     9  F   -0.716912
    10  H    0.053305
    11  H    0.011275
 Sum of Mulliken charges =   0.00000

 Dipole moment (field-independent basis, Debye):
    X=             -1.2822    Y=             -0.3999    Z=             -2.4599  Tot=              2.8027
 Quadrupole moment (field-independent basis, Debye-Ang):
   XX=            -30.2279   YY=            -34.2272   ZZ=            -34.7686
   XY=              8.3423   XZ=              0.9667   YZ=             -2.2790

  Exact polarizability:  45.166   0.629  43.124  -0.872   0.313  40.221
 Approx polarizability:  34.343  -0.124  34.264  -0.406   0.387  34.196

                      1                      2                      3
                      A                      A                      A
 Frequencies --    101.1762               169.9604               228.0401
 Red. masses --      3.0966                 1.0972                 2.7659
 Frc consts  --      0.0187                 0.0187                 0.0847
 IR Inten    --      4.7805               129.3236                13.8052

                      4                      5                      6
                      A                      A                      A
 Frequencies --    256.9911               343.0393               406.9006
 Red. masses --      1.5310                 2.9287                 5.0661
 Frc consts  --      0.0596                 0.2031                 0.4942
 IR Inten    --     14.2683                 9.5565                 7.5822

                      7                      8                      9
                      A                      A                      A
 Frequencies --    481.0253               527.3517               580.7791
 Red. masses --      3.3825                 4.7559                 4.4255
 Frc consts  --      0.4611                 0.7793                 0.8795
 IR Inten    --     27.1080                17.9338                39.8617

                     10                     11                     12
                      A                      A                      A
 Frequencies --    756.1568               819.7923               973.2797
 Red. masses --      1.8794                 4.7650                 1.9441
 Frc consts  --      0.6331                 1.8868                 1.0850
 IR Inten    --     91.3690                31.5172               104.9077

                     13                     14                     15
                      A                      A                      A
 Frequencies --   1007.1676              1042.1666              1101.8326
 Red. masses --      5.1516                 1.8350                 5.2044
 Frc consts  --      3.0789                 1.1743                 3.7226
 IR Inten    --    252.0911                42.7074                63.1249

                     16                     17                     18
                      A                      A                      A
 Frequencies --   1201.7531              1258.0877              1356.4132
 Red. masses --      1.2750                 1.1470                 1.9684
 Frc consts  --      1.0849                 1.0697                 2.1337
 IR Inten    --     38.7355                14.7472                76.1100

                     19                     20                     21
                      A                      A                      A
 Frequencies --   1369.6525              1490.2353              1495.9085
 Red. masses --      1.9343                 2.1060                 1.1463
 Frc consts  --      2.1380                 2.7557                 1.5113
 IR Inten    --     78.3364                16.3354                14.9566

                     22                     23                     24
                      A                      A                      A
 Frequencies --   1635.8995              3060.4068              3135.9250
 Red. masses --      1.1373                 1.0608                 1.1045
 Frc consts  --      1.7932                 5.8536                 6.3993
 IR Inten    --     64.1888                33.4465                17.2729

                     25                     26                     27
                      A                      A                      A
 Frequencies --   3540.9517              3654.9869              3840.5349
 Red. masses --      1.0496                 1.0947                 1.0671
 Frc consts  --      7.7535                 8.6160                 9.2731
 IR Inten    --     16.0796                22.8255                48.7729

 - Thermochemistry -
 -------------------
 Temperature   298.150 Kelvin.  Pressure   1.00000 Atm.
 Atom     1 has atomic number  8 and mass  15.99491

 Molecular mass:    97.03392 amu.
 Principal axes and moments of inertia in atomic units:
                           1         2         3
     Eigenvalues --   361.69551 654.67650 670.10098
           X            0.99610   0.08497  -0.02379
           Y           -0.08765   0.92185  -0.37750
           Z           -0.01015   0.37811   0.92571
 This molecule is an asymmetric top.
 Rotational symmetry number  1.
 Rotational temperatures (Kelvin)      0.23947     0.13230     0.12926
 Rotational constants (GHZ):           4.98967     2.75669     2.69324
 Zero-point vibrational energy     214349.4 (Joules/Mol)
                                   51.23073 (Kcal/Mol)
 Warning -- explicit consideration of   9 degrees of freedom as
           vibrations may cause significant error
 Vibrational temperatures:    145.57   244.54   328.10   369.75   493.56
          (Kelvin)            585.44   692.09   758.74   835.61  1087.94
                             1179.50  1400.33  1449.09  1499.45  1585.29
                             1729.05  1810.11  1951.58  1970.62  2144.12
                             2152.28  2353.69  4403.24  4511.90  5094.64
                             5258.71  5525.67

 Zero-point correction=                           0.081641 (Hartree/Particle)
 Thermal correction to Energy=                    0.088454
 Thermal correction to Enthalpy=                  0.089398
 Thermal correction to Gibbs Free Energy=         0.051161
 Sum of electronic and zero-point Energies=           -407.888755
 Sum of electronic and thermal Energies=              -407.881942
 Sum of electronic and thermal Enthalpies=            -407.880998
 Sum of electronic and thermal Free Energies=         -407.919235

                     E (Thermal)             CV                S
                      KCal/Mol        Cal/Mol-Kelvin    Cal/Mol-Kelvin
 Total                   55.506             23.484             80.477
 Electronic               0.000              0.000              0.000
 Translational            0.889              2.981             39.628
 Rotational               0.889              2.981             26.564
 Vibrational             53.728             17.522             14.284
 Vibration     1          0.604              1.948              3.432
 Vibration     2          0.625              1.879              2.436
 Vibration     3          0.651              1.798              1.894
 Vibration     4          0.667              1.751              1.682
 Vibration     5          0.722              1.589              1.198
 Vibration     6          0.772              1.455              0.938
 Vibration     7          0.837              1.292              0.707
 Vibration     8          0.882              1.189              0.593
 Vibration     9          0.937              1.073              0.484

 Optimization completed.
    -- Stationary point found.
 Normal termination of Gaussian 16 at Tue Feb  8 13:00:52 2022.
