 Gaussian 16, Revision A.03,
 Gaussian 16:  ES64L-G16RevA.03 25-Dec-2016

 --------------------------
 # MP2/aug-cc-pVDZ opt freq
 --------------------------

 --------------
 H F Ref Closed
 --------------
 Symbolic Z-matrix:
 Charge =  0 Multiplicity = 1

 SCF Done:  E(RHF) =  -351.841779085     A.U. after   12 cycles
 E2 =    -0.8933535858D+00 EUMP2 =    -0.35273513267044D+03
 SCF Done:  E(RHF) =  -351.841568685     A.U. after   11 cycles
 E2 =    -0.8959288327D+00 EUMP2 =    -0.35273749751768D+03
 SCF Done:  E(RHF) =  -351.841978394     A.U. after   11 cycles
 E2 =    -0.8961719782D+00 EUMP2 =    -0.35273815037243D+03
 SCF Done:  E(RHF) =  -351.842243013     A.U. after   11 cycles
 E2 =    -0.8961435448D+00 EUMP2 =    -0.35273838655762D+03
 SCF Done:  E(RHF) =  -351.842407573     A.U. after    9 cycles
 E2 =    -0.8959957580D+00 EUMP2 =    -0.35273840333094D+03
 SCF Done:  E(RHF) =  -351.842477224     A.U. after    8 cycles
 E2 =    -0.8959302363D+00 EUMP2 =    -0.35273840746069D+03
 SCF Done:  E(RHF) =  -351.842498088     A.U. after    8 cycles
 E2 =    -0.8959106799D+00 EUMP2 =    -0.35273840876824D+03
 SCF Done:  E(RHF) =  -351.842495738     A.U. after    8 cycles
 E2 =    -0.8959145354D+00 EUMP2 =    -0.35273841027323D+03
 SCF Done:  E(RHF) =  -351.842479510     A.U. after    8 cycles
 E2 =    -0.8959311666D+00 EUMP2 =    -0.35273841067688D+03
 Optimization completed.
    -- Stationary point found.
 Normal termination of Gaussian 16 at Tue Feb  8 12:51:33 2022.

 ----------------------------------------------------------------------
 #N Geom=AllCheck Guess=TCheck SCRF=Check GenChk RMP2(FC)/Aug-CC-pVDZ F
 req
 ----------------------------------------------------------------------

 Structure from the checkpoint file:  "/gscratch/scrubbed/gds001/Gau-22736.chk"
 --------------
 H F Ref Closed
 --------------
 Charge =  0 Multiplicity = 1

                         Standard orientation:
 ---------------------------------------------------------------------
 Center     Atomic      Atomic             Coordinates (Angstroms)
 Number     Number       Type             X           Y           Z
 ---------------------------------------------------------------------
      1          8           0       -1.939733    0.132721   -0.049650
      2          6           0       -0.762570   -0.589114    0.306192
      3          1           0       -2.209583   -0.136435   -0.938144
      4          6           0        0.475272    0.014899   -0.332239
      5          1           0       -0.817101   -1.653570    0.022224
      6          1           0       -0.655725   -0.515170    1.397543
      7          1           0        0.431544    0.092276   -1.429856
      8          9           0        1.570752   -0.765273   -0.000501
      9          9           0        0.706195    1.275987    0.167359
 ---------------------------------------------------------------------

 SCF Done:  E(RHF) =  -351.842479510     A.U. after    1 cycles
 E2 =    -0.8959311734D+00 EUMP2 =    -0.35273841068370D+03
 E2 =    -0.8959311734D+00 EUMP2 =    -0.35273841068370D+03

 The electronic state is 1-A.
 Alpha  occ. eigenvalues --  -26.32600 -26.32176 -20.59831 -11.42367 -11.31746
 Alpha  occ. eigenvalues --   -1.65742  -1.59966  -1.38943  -1.03801  -0.89504
 Alpha  occ. eigenvalues --   -0.77572  -0.76037  -0.74394  -0.70317  -0.66290
 Alpha  occ. eigenvalues --   -0.64085  -0.62743  -0.60380  -0.56957  -0.52585
 Alpha  occ. eigenvalues --   -0.47722
 Alpha virt. eigenvalues --    0.02797   0.04550   0.05269   0.05880   0.10529
 Alpha virt. eigenvalues --    0.10946   0.11991   0.12250   0.14959   0.15172
 Alpha virt. eigenvalues --    0.17403   0.19311   0.20747   0.22131   0.26074

 Mulliken charges:
               1
     1  O   -0.644588
     2  C    0.649340
     3  H    0.131891
     4  C    1.394950
     5  H   -0.012554
     6  H   -0.107589
     7  H   -0.179103
     8  F   -0.624132
     9  F   -0.608216
 Sum of Mulliken charges =  -0.00000

 Dipole moment (field-independent basis, Debye):
    X=             -1.3557    Y=             -1.9490    Z=             -2.0136  Tot=              3.1131
 Quadrupole moment (field-independent basis, Debye-Ang):
   XX=            -32.7381   YY=            -30.4674   ZZ=            -24.2748
   XY=              2.7319   XZ=              2.3037   YZ=             -0.2450

  Exact polarizability:  36.336  -0.912  33.487   1.078  -0.371  32.242
 Approx polarizability:  26.743  -1.110  27.276   1.186   0.396  27.393

                      1                      2                      3
                      A                      A                      A
 Frequencies --    121.2450               234.9225               256.0351
 Red. masses --      3.0753                 2.9520                 1.3980
 Frc consts  --      0.0266                 0.0960                 0.0540
 IR Inten    --      7.2158                67.5960                44.5100

                      4                      5                      6
                      A                      A                      A
 Frequencies --    422.4723               476.1589               562.1639
 Red. masses --      7.2223                 2.9570                 7.8807
 Frc consts  --      0.7595                 0.3950                 1.4674
 IR Inten    --     10.6921                23.1067                 2.9321

                      7                      8                      9
                      A                      A                      A
 Frequencies --    889.5625              1050.2768              1072.0457
 Red. masses --      2.2186                 2.3266                 5.1711
 Frc consts  --      1.0344                 1.5121                 3.5016
 IR Inten    --     31.6365                51.2141               204.7948

                     10                     11                     12
                      A                      A                      A
 Frequencies --   1095.4574              1162.2121              1226.7944
 Red. masses --      3.9251                 2.5898                 1.4187
 Frc consts  --      2.7752                 2.0611                 1.2581
 IR Inten    --     75.2486                64.7420                10.9408

                     13                     14                     15
                      A                      A                      A
 Frequencies --   1326.1519              1379.2772              1383.9628
 Red. masses --      1.1585                 1.1993                 1.2159
 Frc consts  --      1.2005                 1.3443                 1.3722
 IR Inten    --      8.0622                22.4562                18.6925

                     16                     17                     18
                      A                      A                      A
 Frequencies --   1443.5262              1479.3265              3086.3351
 Red. masses --      1.6800                 1.0846                 1.0631
 Frc consts  --      2.0626                 1.3985                 5.9661
 IR Inten    --     16.9448                 4.1883                25.5617

                     19                     20                     21
                      A                      A                      A
 Frequencies --   3136.6034              3176.0968              3828.1563
 Red. masses --      1.0885                 1.1035                 1.0671
 Frc consts  --      6.3093                 6.5587                 9.2133
 IR Inten    --     25.9560                14.7623                41.6157

 - Thermochemistry -
 -------------------
 Temperature   298.150 Kelvin.  Pressure   1.00000 Atm.
 Atom     1 has atomic number  8 and mass  15.99491

 Molecular mass:    82.02302 amu.
 Principal axes and moments of inertia in atomic units:
                           1         2         3
     Eigenvalues --   204.67234 500.09716 648.34432
           X            0.99954   0.03030   0.00338
           Y           -0.03021   0.99930  -0.02221
           Z           -0.00405   0.02210   0.99975
 This molecule is an asymmetric top.
 Rotational symmetry number  1.
 Rotational temperatures (Kelvin)      0.42318     0.17319     0.13359
 Rotational constants (GHZ):           8.81771     3.60878     2.78362
 Zero-point vibrational energy     172314.8 (Joules/Mol)
                                   41.18422 (Kcal/Mol)
 Warning -- explicit consideration of   6 degrees of freedom as
           vibrations may cause significant error
 Vibrational temperatures:    174.44   338.00   368.38   607.84   685.09
          (Kelvin)            808.83  1279.88  1511.11  1542.43  1576.12
                             1672.16  1765.08  1908.04  1984.47  1991.21
                             2076.91  2128.42  4440.55  4512.87  4569.69
                             5507.86

 Zero-point correction=                           0.065631 (Hartree/Particle)
 Thermal correction to Energy=                    0.071069
 Thermal correction to Enthalpy=                  0.072013
 Thermal correction to Gibbs Free Energy=         0.036810
 Sum of electronic and zero-point Energies=           -352.672779
 Sum of electronic and thermal Energies=              -352.667342
 Sum of electronic and thermal Enthalpies=            -352.666397
 Sum of electronic and thermal Free Energies=         -352.701601

                     E (Thermal)             CV                S
                      KCal/Mol        Cal/Mol-Kelvin    Cal/Mol-Kelvin
 Total                   44.596             17.651             74.091
 Electronic               0.000              0.000              0.000
 Translational            0.889              2.981             39.127
 Rotational               0.889              2.981             25.698
 Vibrational             42.819             11.689              9.265
 Vibration     1          0.609              1.931              3.080
 Vibration     2          0.655              1.787              1.841
 Vibration     3          0.666              1.753              1.689
 Vibration     4          0.785              1.421              0.884
 Vibration     5          0.833              1.303              0.720
 Vibration     6          0.918              1.113              0.520

 Optimization completed.
    -- Stationary point found.
 Normal termination of Gaussian 16 at Tue Feb  8 12:53:50 2022.
