 Gaussian 16, Revision A.03,
 Gaussian 16:  ES64L-G16RevA.03 25-Dec-2016

 --------------------------
 # MP2/aug-cc-pVDZ opt freq
 --------------------------

 ------------
 H F Ref Open
 ------------
 Symbolic Z-matrix:
 Charge =  0 Multiplicity = 1

 SCF Done:  E(RHF) =  -351.842104722     A.U. after   12 cycles
 E2 =    -0.8927475341D+00 EUMP2 =    -0.35273485225613D+03
 SCF Done:  E(RHF) =  -351.843065373     A.U. after   11 cycles
 E2 =    -0.8953653997D+00 EUMP2 =    -0.35273843077288D+03
 SCF Done:  E(RHF) =  -351.843381537     A.U. after   10 cycles
 E2 =    -0.8955712091D+00 EUMP2 =    -0.35273895274629D+03
 SCF Done:  E(RHF) =  -351.843527077     A.U. after   10 cycles
 E2 =    -0.8955529985D+00 EUMP2 =    -0.35273908007509D+03
 SCF Done:  E(RHF) =  -351.843647228     A.U. after    9 cycles
 E2 =    -0.8954478845D+00 EUMP2 =    -0.35273909511247D+03
 SCF Done:  E(RHF) =  -351.843701363     A.U. after    8 cycles
 E2 =    -0.8953966330D+00 EUMP2 =    -0.35273909799632D+03
 SCF Done:  E(RHF) =  -351.843701577     A.U. after    7 cycles
 E2 =    -0.8953968651D+00 EUMP2 =    -0.35273909844175D+03
 SCF Done:  E(RHF) =  -351.843703718     A.U. after    8 cycles
 E2 =    -0.8953951775D+00 EUMP2 =    -0.35273909889531D+03
 SCF Done:  E(RHF) =  -351.843698332     A.U. after    8 cycles
 E2 =    -0.8954010060D+00 EUMP2 =    -0.35273909933766D+03
 SCF Done:  E(RHF) =  -351.843691802     A.U. after    8 cycles
 E2 =    -0.8954078078D+00 EUMP2 =    -0.35273909960984D+03
 SCF Done:  E(RHF) =  -351.843689598     A.U. after    7 cycles
 E2 =    -0.8954101358D+00 EUMP2 =    -0.35273909973406D+03
 Optimization completed.
    -- Stationary point found.
 Normal termination of Gaussian 16 at Tue Feb  8 12:51:54 2022.

 ----------------------------------------------------------------------
 #N Geom=AllCheck Guess=TCheck SCRF=Check GenChk RMP2(FC)/Aug-CC-pVDZ F
 req
 ----------------------------------------------------------------------

 Structure from the checkpoint file:  "/gscratch/scrubbed/gds001/Gau-22767.chk"
 ------------
 H F Ref Open
 ------------
 Charge =  0 Multiplicity = 1

                         Standard orientation:
 ---------------------------------------------------------------------
 Center     Atomic      Atomic             Coordinates (Angstroms)
 Number     Number       Type             X           Y           Z
 ---------------------------------------------------------------------
      1          8           0       -1.873231    0.144897   -0.215095
      2          6           0       -0.762525   -0.594522    0.293792
      3          1           0       -2.672965   -0.163189    0.229970
      4          6           0        0.474093    0.017492   -0.327752
      5          1           0       -0.802735   -1.656706   -0.002247
      6          1           0       -0.670911   -0.518268    1.390333
      7          1           0        0.421593    0.110046   -1.421770
      8          9           0        1.566598   -0.767218   -0.002537
      9          9           0        0.704674    1.270676    0.194563
 ---------------------------------------------------------------------

 SCF Done:  E(RHF) =  -351.843689598     A.U. after    1 cycles
 E2 =    -0.8954101470D+00 EUMP2 =    -0.35273909974525D+03
 E2 =    -0.8954101470D+00 EUMP2 =    -0.35273909974525D+03

 The electronic state is 1-A.
 Alpha  occ. eigenvalues --  -26.32259 -26.31822 -20.59648 -11.41999 -11.31677
 Alpha  occ. eigenvalues --   -1.65427  -1.59628  -1.38848  -1.03880  -0.88739
 Alpha  occ. eigenvalues --   -0.77671  -0.75874  -0.72885  -0.70429  -0.66662
 Alpha  occ. eigenvalues --   -0.64122  -0.62378  -0.60451  -0.57187  -0.51238
 Alpha  occ. eigenvalues --   -0.47958
 Alpha virt. eigenvalues --    0.02968   0.04590   0.05297   0.05853   0.10381
 Alpha virt. eigenvalues --    0.11359   0.11541   0.13161   0.14793   0.16059
 Alpha virt. eigenvalues --    0.16961   0.19817   0.20844   0.22430   0.24382

 Mulliken charges:
               1
     1  O   -0.657254
     2  C    0.634586
     3  H    0.140039
     4  C    1.366979
     5  H   -0.032357
     6  H   -0.062938
     7  H   -0.145119
     8  F   -0.624994
     9  F   -0.618943
 Sum of Mulliken charges =  -0.00000

 Dipole moment (field-independent basis, Debye):
    X=             -2.3125    Y=             -1.9940    Z=              0.1881  Tot=              3.0593
 Quadrupole moment (field-independent basis, Debye-Ang):
   XX=            -27.5300   YY=            -30.4866   ZZ=            -26.4810
   XY=              3.0769   XZ=             -3.7492   YZ=             -0.6441

  Exact polarizability:  37.074  -0.814  33.526   0.131  -0.568  31.447
 Approx polarizability:  27.491  -0.799  27.340   0.244  -0.332  26.405

                      1                      2                      3
                      A                      A                      A
 Frequencies --    119.1424               197.4563               253.4133
 Red. masses --      3.9589                 1.0986                 4.8320
 Frc consts  --      0.0331                 0.0252                 0.1828
 IR Inten    --     25.3738                97.5602                 5.6658

                      4                      5                      6
                      A                      A                      A
 Frequencies --    429.2557               470.7822               567.5981
 Red. masses --      8.0520                 2.9884                 7.7937
 Frc consts  --      0.8741                 0.3902                 1.4794
 IR Inten    --      6.4227                14.8055                 5.1186

                      7                      8                      9
                      A                      A                      A
 Frequencies --    900.9204              1059.7023              1085.7643
 Red. masses --      2.2696                 4.0398                 8.1213
 Frc consts  --      1.0854                 2.6729                 5.6409
 IR Inten    --     35.4441               160.9033               151.9223

                     10                     11                     12
                      A                      A                      A
 Frequencies --   1117.7989              1144.4420              1244.8765
 Red. masses --      2.1764                 2.5674                 1.1697
 Frc consts  --      1.6022                 1.9812                 1.0680
 IR Inten    --     25.1266                67.2019                25.7101

                     13                     14                     15
                      A                      A                      A
 Frequencies --   1255.0134              1347.8063              1388.8003
 Red. masses --      1.1548                 1.2340                 1.2240
 Frc consts  --      1.0717                 1.3207                 1.3909
 IR Inten    --      8.4887                 8.7368                19.3973

                     16                     17                     18
                      A                      A                      A
 Frequencies --   1481.5366              1498.2620              3067.8521
 Red. masses --      1.7653                 1.1181                 1.0567
 Frc consts  --      2.2829                 1.4788                 5.8597
 IR Inten    --     11.1558                 9.8093                30.7339

                     19                     20                     21
                      A                      A                      A
 Frequencies --   3133.2732              3166.8065              3846.3826
 Red. masses --      1.1071                 1.0902                 1.0672
 Frc consts  --      6.4038                 6.4418                 9.3023
 IR Inten    --     12.0012                27.2953                54.0255

 - Thermochemistry -
 -------------------
 Temperature   298.150 Kelvin.  Pressure   1.00000 Atm.
 Atom     1 has atomic number  8 and mass  15.99491

 Molecular mass:    82.02302 amu.
 Principal axes and moments of inertia in atomic units:
                           1         2         3
     Eigenvalues --   203.98239 492.03005 640.68684
           X            0.99931   0.03199  -0.01911
           Y           -0.03254   0.99905  -0.02885
           Z            0.01817   0.02945   0.99940
 This molecule is an asymmetric top.
 Rotational symmetry number  1.
 Rotational temperatures (Kelvin)      0.42461     0.17603     0.13519
 Rotational constants (GHZ):           8.84753     3.66795     2.81689
 Zero-point vibrational energy     172124.0 (Joules/Mol)
                                   41.13862 (Kcal/Mol)
 Warning -- explicit consideration of   6 degrees of freedom as
           vibrations may cause significant error
 Vibrational temperatures:    171.42   284.10   364.61   617.60   677.35
          (Kelvin)            816.65  1296.22  1524.68  1562.17  1608.26
                             1646.60  1791.10  1805.68  1939.19  1998.17
                             2131.60  2155.66  4413.95  4508.08  4556.33
                             5534.09

 Zero-point correction=                           0.065559 (Hartree/Particle)
 Thermal correction to Energy=                    0.071052
 Thermal correction to Enthalpy=                  0.071996
 Thermal correction to Gibbs Free Energy=         0.036647
 Sum of electronic and zero-point Energies=           -352.673541
 Sum of electronic and thermal Energies=              -352.668048
 Sum of electronic and thermal Enthalpies=            -352.667104
 Sum of electronic and thermal Free Energies=         -352.702453

                     E (Thermal)             CV                S
                      KCal/Mol        Cal/Mol-Kelvin    Cal/Mol-Kelvin
 Total                   44.586             17.676             74.399
 Electronic               0.000              0.000              0.000
 Translational            0.889              2.981             39.127
 Rotational               0.889              2.981             25.667
 Vibrational             42.808             11.714              9.605
 Vibration     1          0.609              1.933              3.114
 Vibration     2          0.637              1.843              2.157
 Vibration     3          0.665              1.757              1.707
 Vibration     4          0.791              1.407              0.861
 Vibration     5          0.828              1.315              0.735
 Vibration     6          0.924              1.101              0.509

 Optimization completed.
    -- Stationary point found.
 Normal termination of Gaussian 16 at Tue Feb  8 12:54:04 2022.
