 Gaussian 16, Revision A.03,
 Gaussian 16:  ES64L-G16RevA.03 25-Dec-2016

 --------------------------
 # MP2/aug-cc-pVDZ opt freq
 --------------------------

 -----------
 F Me Closed
 -----------
 Symbolic Z-matrix:
 Charge =  0 Multiplicity = 1

 SCF Done:  E(RHF) =  -484.980720622     A.U. after   13 cycles
 E2 =    -0.1381887945D+01 EUMP2 =    -0.48636260856688D+03
 SCF Done:  E(RHF) =  -484.987333215     A.U. after   12 cycles
 E2 =    -0.1382941116D+01 EUMP2 =    -0.48637027433056D+03
 SCF Done:  E(RHF) =  -484.988795668     A.U. after   11 cycles
 E2 =    -0.1383126261D+01 EUMP2 =    -0.48637192192983D+03
 SCF Done:  E(RHF) =  -484.988207857     A.U. after   11 cycles
 E2 =    -0.1383911524D+01 EUMP2 =    -0.48637211938100D+03
 SCF Done:  E(RHF) =  -484.987713853     A.U. after   11 cycles
 E2 =    -0.1384421176D+01 EUMP2 =    -0.48637213502980D+03
 SCF Done:  E(RHF) =  -484.988455198     A.U. after   10 cycles
 E2 =    -0.1383962923D+01 EUMP2 =    -0.48637241812041D+03
 SCF Done:  E(RHF) =  -484.988432812     A.U. after    8 cycles
 E2 =    -0.1383991383D+01 EUMP2 =    -0.48637242419568D+03
 SCF Done:  E(RHF) =  -484.988413439     A.U. after    8 cycles
 E2 =    -0.1384011991D+01 EUMP2 =    -0.48637242542977D+03
 SCF Done:  E(RHF) =  -484.988412330     A.U. after    7 cycles
 E2 =    -0.1384013226D+01 EUMP2 =    -0.48637242555661D+03
 Optimization completed.
    -- Stationary point found.
 Normal termination of Gaussian 16 at Tue Feb  8 13:07:29 2022.

 ----------------------------------------------------------------------
 #N Geom=AllCheck Guess=TCheck SCRF=Check GenChk RMP2(FC)/Aug-CC-pVDZ F
 req
 ----------------------------------------------------------------------

 Structure from the checkpoint file:  "/gscratch/scrubbed/gds001/Gau-23045.chk"
 -----------
 F Me Closed
 -----------
 Charge =  0 Multiplicity = 1

                         Standard orientation:
 ---------------------------------------------------------------------
 Center     Atomic      Atomic             Coordinates (Angstroms)
 Number     Number       Type             X           Y           Z
 ---------------------------------------------------------------------
      1          8           0       -1.320886   -1.244095    0.295577
      2          6           0       -0.790946   -0.032235   -0.032462
      3          1           0       -0.719627   -1.581777    0.990545
      4          6           0        0.747403    0.007193    0.017380
      5          9           0       -1.284786    0.948727    0.832694
      6          9           0       -1.256296    0.311414   -1.271964
      7          7           0        1.070395   -0.543702    1.352503
      8          6           0        1.257080    1.435632   -0.205584
      9          6           0        1.307684   -0.942759   -1.046058
     10          1           0        0.948385    0.175765    2.068185
     11          1           0        2.049043   -0.831599    1.383260
     12          1           0        2.408395   -0.944494   -0.988127
     13          1           0        1.015230   -0.608738   -2.051320
     14          1           0        0.942314   -1.968418   -0.893507
     15          1           0        2.358669    1.433338   -0.195468
     16          1           0        0.896777    2.109523    0.584986
     17          1           0        0.917550    1.826816   -1.176910
 ---------------------------------------------------------------------

 SCF Done:  E(RHF) =  -484.988412330     A.U. after    1 cycles
 E2 =    -0.1384013224D+01 EUMP2 =    -0.48637242555401D+03
 E2 =    -0.1384013224D+01 EUMP2 =    -0.48637242555401D+03

 The electronic state is 1-A.
 Alpha  occ. eigenvalues --  -26.32209 -26.31055 -20.59889 -15.58447 -11.46412
 Alpha  occ. eigenvalues --  -11.30193 -11.24375 -11.24112  -1.66183  -1.59338
 Alpha  occ. eigenvalues --   -1.41207  -1.22447  -1.05528  -0.95622  -0.93709
 Alpha  occ. eigenvalues --   -0.83813  -0.77256  -0.75986  -0.72789  -0.67798
 Alpha  occ. eigenvalues --   -0.66119  -0.65776  -0.64230  -0.62335  -0.61399
 Alpha  occ. eigenvalues --   -0.59172  -0.56770  -0.55600  -0.54215  -0.52424
 Alpha  occ. eigenvalues --   -0.50356  -0.48779  -0.43099
 Alpha virt. eigenvalues --    0.02751   0.04324   0.04397   0.05268   0.06761
 Alpha virt. eigenvalues --    0.07023   0.07091   0.07532   0.09148   0.10684
 Alpha virt. eigenvalues --    0.12435   0.13371   0.13974   0.14430   0.14544

 Mulliken charges:
               1
     1  O   -0.830280
     2  C    2.604068
     3  H    0.268580
     4  C   -2.987517
     5  F   -0.746134
     6  F   -0.702024
     7  N   -0.291400
     8  C    1.274086
     9  C    1.146515
    10  H    0.056183
    11  H    0.027530
    12  H   -0.011730
    13  H    0.039359
    14  H    0.036257
    15  H    0.064511
    16  H   -0.019482
    17  H    0.071478
 Sum of Mulliken charges =  -0.00000

 Dipole moment (field-independent basis, Debye):
    X=              4.3700    Y=             -0.1957    Z=              0.9495  Tot=              4.4763
 Quadrupole moment (field-independent basis, Debye-Ang):
   XX=            -49.4428   YY=            -48.5466   ZZ=            -46.8751
   XY=             -0.3084   XZ=              0.8392   YZ=             -0.4470

  Exact polarizability:  65.944   1.074  66.853  -0.278  -0.533  65.138
 Approx polarizability:  53.990  -0.398  55.045   0.801  -0.396  55.860

                      1                      2                      3
                      A                      A                      A
 Frequencies --     88.9071               213.5293               233.6393
 Red. masses --      4.3497                 1.0658                 2.2163
 Frc consts  --      0.0203                 0.0286                 0.0713
 IR Inten    --      2.1034                 1.2343                 2.0897

                      4                      5                      6
                      A                      A                      A
 Frequencies --    245.3574               277.3109               307.6743
 Red. masses --      2.7213                 1.6003                 1.1499
 Frc consts  --      0.0965                 0.0725                 0.0641
 IR Inten    --      2.1047                 3.0945                10.6837

                      7                      8                      9
                      A                      A                      A
 Frequencies --    342.0909               351.9234               360.8733
 Red. masses --      3.5271                 2.8412                 2.5993
 Frc consts  --      0.2432                 0.2073                 0.1994
 IR Inten    --      7.5703                 1.0962                 2.2336

                     10                     11                     12
                      A                      A                      A
 Frequencies --    437.4987               457.1708               561.8286
 Red. masses --      4.4380                 3.8104                 3.4501
 Frc consts  --      0.5005                 0.4692                 0.6416
 IR Inten    --      2.9805                 5.9648                 3.4036

                     13                     14                     15
                      A                      A                      A
 Frequencies --    571.0589               583.6237               628.9091
 Red. masses --      4.4785                 5.1097                 1.2747
 Frc consts  --      0.8605                 1.0255                 0.2971
 IR Inten    --      7.3645                 5.1392                90.6815

                     16                     17                     18
                      A                      A                      A
 Frequencies --    744.4111               853.1641               921.7432
 Red. masses --      8.0113                 2.2721                 1.3810
 Frc consts  --      2.6157                 0.9744                 0.6913
 IR Inten    --      0.4209                62.4578                59.4993

                     19                     20                     21
                      A                      A                      A
 Frequencies --    953.6881               990.9522              1006.2760
 Red. masses --      1.4136                 1.6798                 1.5150
 Frc consts  --      0.7575                 0.9719                 0.9038
 IR Inten    --      2.9320                 0.6897                40.5482

                     22                     23                     24
                      A                      A                      A
 Frequencies --   1067.1215              1075.5934              1111.8957
 Red. masses --      3.6142                 2.1086                 1.8390
 Frc consts  --      2.4249                 1.4373                 1.3395
 IR Inten    --    167.2208                89.2726                44.1511

                     25                     26                     27
                      A                      A                      A
 Frequencies --   1221.1472              1253.5186              1297.3853
 Red. masses --      3.7887                 3.3526                 3.1958
 Frc consts  --      3.3287                 3.1038                 3.1693
 IR Inten    --    221.5227                31.8526                20.1695

                     28                     29                     30
                      A                      A                      A
 Frequencies --   1354.2586              1389.7213              1402.7271
 Red. masses --      1.8424                 1.3836                 1.3597
 Frc consts  --      1.9908                 1.5744                 1.5763
 IR Inten    --     26.9813                 4.1916                12.3004

                     31                     32                     33
                      A                      A                      A
 Frequencies --   1431.8729              1475.7583              1481.3923
 Red. masses --      1.7448                 1.0504                 1.0483
 Frc consts  --      2.1077                 1.3478                 1.3554
 IR Inten    --    152.8880                 0.0969                 3.4413

                     34                     35                     36
                      A                      A                      A
 Frequencies --   1493.6733              1513.2725              1630.0482
 Red. masses --      1.0572                 1.1434                 1.1026
 Frc consts  --      1.3897                 1.5427                 1.7261
 IR Inten    --      3.8151                39.4002                46.7557

                     37                     38                     39
                      A                      A                      A
 Frequencies --   3063.5196              3068.0708              3156.4053
 Red. masses --      1.0356                 1.0372                 1.1014
 Frc consts  --      5.7266                 5.7522                 6.4653
 IR Inten    --     13.3825                16.6596                 5.0646

                     40                     41                     42
                      A                      A                      A
 Frequencies --   3160.6794              3170.8420              3183.8714
 Red. masses --      1.1000                 1.1022                 1.1025
 Frc consts  --      6.4744                 6.5294                 6.5847
 IR Inten    --     21.6826                11.6616                 9.1914

                     43                     44                     45
                      A                      A                      A
 Frequencies --   3491.9301              3595.2176              3634.6787
 Red. masses --      1.0505                 1.0926                 1.0640
 Frc consts  --      7.5467                 8.3204                 8.2815
 IR Inten    --      2.3495                 8.4065               125.2682

 - Thermochemistry -
 -------------------
 Temperature   298.150 Kelvin.  Pressure   1.00000 Atm.
 Atom     1 has atomic number  8 and mass  15.99491

 Molecular mass:   125.06522 amu.
 Principal axes and moments of inertia in atomic units:
                           1         2         3
     Eigenvalues --   717.63249 992.86873 999.77511
           X            0.99852   0.03968  -0.03718
           Y           -0.04192   0.99722  -0.06164
           Z            0.03463   0.06311   0.99741
 This molecule is an asymmetric top.
 Rotational symmetry number  1.
 Warning -- assumption of classical behavior for rotation
           may cause significant error
 Rotational temperatures (Kelvin)      0.12069     0.08724     0.08663
 Rotational constants (GHZ):           2.51485     1.81770     1.80515
 Zero-point vibrational energy     364001.1 (Joules/Mol)
                                   86.99835 (Kcal/Mol)
 Warning -- explicit consideration of  14 degrees of freedom as
           vibrations may cause significant error
 Vibrational temperatures:    127.92   307.22   336.15   353.01   398.99
          (Kelvin)            442.67   492.19   506.34   519.22   629.46
                              657.77   808.35   821.63   839.70   904.86
                             1071.04  1227.51  1326.18  1372.14  1425.76
                             1447.81  1535.35  1547.54  1599.77  1756.96
                             1803.53  1866.65  1948.48  1999.50  2018.21
                             2060.15  2123.29  2131.39  2149.06  2177.26
                             2345.28  4407.72  4414.27  4541.36  4547.51
                             4562.13  4580.88  5024.11  5172.72  5229.49

 Zero-point correction=                           0.138641 (Hartree/Particle)
 Thermal correction to Energy=                    0.147418
 Thermal correction to Enthalpy=                  0.148362
 Thermal correction to Gibbs Free Energy=         0.106098
 Sum of electronic and zero-point Energies=           -486.233785
 Sum of electronic and thermal Energies=              -486.225008
 Sum of electronic and thermal Enthalpies=            -486.224063
 Sum of electronic and thermal Free Energies=         -486.266327

                     E (Thermal)             CV                S
                      KCal/Mol        Cal/Mol-Kelvin    Cal/Mol-Kelvin
 Total                   92.506             33.526             88.951
 Electronic               0.000              0.000              0.000
 Translational            0.889              2.981             40.385
 Rotational               0.889              2.981             28.057
 Vibrational             90.729             27.564             20.510
 Vibration     1          0.602              1.957              3.684
 Vibration     2          0.644              1.820              2.013
 Vibration     3          0.654              1.789              1.851
 Vibration     4          0.660              1.770              1.764
 Vibration     5          0.678              1.715              1.550
 Vibration     6          0.698              1.659              1.375
 Vibration     7          0.721              1.591              1.202
 Vibration     8          0.728              1.571              1.158
 Vibration     9          0.735              1.553              1.118
 Vibration    10          0.798              1.388              0.835
 Vibration    11          0.815              1.345              0.774
 Vibration    12          0.918              1.114              0.520
 Vibration    13          0.927              1.094              0.502
 Vibration    14          0.941              1.067              0.479

 Optimization completed.
    -- Stationary point found.
 Normal termination of Gaussian 16 at Tue Feb  8 13:31:54 2022.
