 Gaussian 16, Revision A.03,
 Gaussian 16:  ES64L-G16RevA.03 25-Dec-2016

 --------------------------
 # MP2/aug-cc-pVDZ opt freq
 --------------------------

 ---------
 F Me Open
 ---------
 Symbolic Z-matrix:
 Charge =  0 Multiplicity = 1

 SCF Done:  E(RHF) =  -484.975883366     A.U. after   13 cycles
 E2 =    -0.1379462091D+01 EUMP2 =    -0.48635534545709D+03
 SCF Done:  E(RHF) =  -484.981833945     A.U. after   12 cycles
 E2 =    -0.1382750921D+01 EUMP2 =    -0.48636458486671D+03
 SCF Done:  E(RHF) =  -484.984049657     A.U. after   11 cycles
 E2 =    -0.1382138135D+01 EUMP2 =    -0.48636618779228D+03
 SCF Done:  E(RHF) =  -484.984276646     A.U. after   11 cycles
 E2 =    -0.1382349331D+01 EUMP2 =    -0.48636662597746D+03
 SCF Done:  E(RHF) =  -484.984260206     A.U. after   11 cycles
 E2 =    -0.1382452678D+01 EUMP2 =    -0.48636671288391D+03
 SCF Done:  E(RHF) =  -484.984273998     A.U. after   10 cycles
 E2 =    -0.1382510629D+01 EUMP2 =    -0.48636678462704D+03
 SCF Done:  E(RHF) =  -484.984346638     A.U. after    9 cycles
 E2 =    -0.1382464814D+01 EUMP2 =    -0.48636681145194D+03
 SCF Done:  E(RHF) =  -484.984447517     A.U. after    9 cycles
 E2 =    -0.1382374285D+01 EUMP2 =    -0.48636682180156D+03
 SCF Done:  E(RHF) =  -484.984466262     A.U. after    8 cycles
 E2 =    -0.1382356978D+01 EUMP2 =    -0.48636682323918D+03
 SCF Done:  E(RHF) =  -484.984485865     A.U. after    8 cycles
 E2 =    -0.1382338987D+01 EUMP2 =    -0.48636682485177D+03
 SCF Done:  E(RHF) =  -484.984472595     A.U. after    8 cycles
 E2 =    -0.1382352611D+01 EUMP2 =    -0.48636682520591D+03
 SCF Done:  E(RHF) =  -484.984461899     A.U. after    7 cycles
 E2 =    -0.1382363362D+01 EUMP2 =    -0.48636682526115D+03
 Optimization completed.
    -- Stationary point found.
 Normal termination of Gaussian 16 at Tue Feb  8 13:13:28 2022.

 ----------------------------------------------------------------------
 #N Geom=AllCheck Guess=TCheck SCRF=Check GenChk RMP2(FC)/Aug-CC-pVDZ F
 req
 ----------------------------------------------------------------------

 Structure from the checkpoint file:  "/gscratch/scrubbed/gds001/Gau-22967.chk"
 ---------
 F Me Open
 ---------
 Charge =  0 Multiplicity = 1

                         Standard orientation:
 ---------------------------------------------------------------------
 Center     Atomic      Atomic             Coordinates (Angstroms)
 Number     Number       Type             X           Y           Z
 ---------------------------------------------------------------------
      1          8           0       -1.290354    1.197868   -0.472947
      2          6           0       -0.766772    0.034402   -0.000311
      3          1           0       -2.257309    1.115266   -0.440972
      4          6           0        0.765310    0.019020   -0.037676
      5          9           0       -1.268574   -1.043722   -0.725797
      6          9           0       -1.218320   -0.194786    1.294819
      7          7           0        1.138577    0.106274   -1.459130
      8          6           0        1.268625   -1.263424    0.648017
      9          6           0        1.297598    1.261930    0.683014
     10          1           0        0.912842   -0.771991   -1.930901
     11          1           0        2.151872    0.217956   -1.525471
     12          1           0        2.399251    1.227336    0.691963
     13          1           0        0.945992    1.288331    1.724778
     14          1           0        0.973650    2.174172    0.164343
     15          1           0        2.367008   -1.290380    0.571030
     16          1           0        0.862644   -2.157808    0.151451
     17          1           0        0.990322   -1.294739    1.711801
 ---------------------------------------------------------------------

 SCF Done:  E(RHF) =  -484.984461899     A.U. after    1 cycles
 E2 =    -0.1382363355D+01 EUMP2 =    -0.48636682525432D+03
 E2 =    -0.1382363355D+01 EUMP2 =    -0.48636682525432D+03

 The electronic state is 1-A.
 Alpha  occ. eigenvalues --  -26.32206 -26.32181 -20.61368 -15.56035 -11.46962
 Alpha  occ. eigenvalues --  -11.29286 -11.23333 -11.23266  -1.66514  -1.59782
 Alpha  occ. eigenvalues --   -1.42249  -1.20930  -1.04493  -0.94671  -0.94336
 Alpha  occ. eigenvalues --   -0.82057  -0.78183  -0.76802  -0.72640  -0.69159
 Alpha  occ. eigenvalues --   -0.67648  -0.64842  -0.62712  -0.61465  -0.59675
 Alpha  occ. eigenvalues --   -0.58981  -0.56543  -0.54616  -0.53664  -0.52247
 Alpha  occ. eigenvalues --   -0.50220  -0.49119  -0.40504
 Alpha virt. eigenvalues --    0.03440   0.04225   0.04794   0.05036   0.06398
 Alpha virt. eigenvalues --    0.07332   0.07497   0.07558   0.08618   0.11556
 Alpha virt. eigenvalues --    0.12651   0.13206   0.14449   0.14880   0.15473

 Mulliken charges:
               1
     1  O   -0.727741
     2  C    2.421184
     3  H    0.133996
     4  C   -2.832773
     5  F   -0.726160
     6  F   -0.708242
     7  N   -0.178551
     8  C    1.200451
     9  C    1.163230
    10  H    0.008897
    11  H   -0.002876
    12  H    0.014213
    13  H    0.050442
    14  H    0.087990
    15  H    0.045187
    16  H   -0.009274
    17  H    0.060028
 Sum of Mulliken charges =  -0.00000

 Dipole moment (field-independent basis, Debye):
    X=              1.2655    Y=             -0.2015    Z=              0.2229  Tot=              1.3007
 Quadrupole moment (field-independent basis, Debye-Ang):
   XX=            -40.6385   YY=            -49.6525   ZZ=            -50.9901
   XY=             -3.3698   XZ=              0.3431   YZ=              2.4392

  Exact polarizability:  67.551  -1.134  66.543   0.614  -0.427  65.239
 Approx polarizability:  55.081   0.293  54.704  -0.297   0.237  55.178

                      1                      2                      3
                      A                      A                      A
 Frequencies --     83.7247               201.5583               235.1827
 Red. masses --      4.8539                 1.1875                 1.7134
 Frc consts  --      0.0200                 0.0284                 0.0558
 IR Inten    --      0.1860                15.6701                 5.1912

                      4                      5                      6
                      A                      A                      A
 Frequencies --    249.2339               258.6773               268.2357
 Red. masses --      1.5969                 2.9750                 1.0730
 Frc consts  --      0.0584                 0.1173                 0.0455
 IR Inten    --     26.4952                 0.0761                34.8110

                      7                      8                      9
                      A                      A                      A
 Frequencies --    290.9892               342.5293               352.4615
 Red. masses --      1.1143                 3.5606                 2.8455
 Frc consts  --      0.0556                 0.2461                 0.2083
 IR Inten    --     53.0069                 2.3692                 4.0275

                     10                     11                     12
                      A                      A                      A
 Frequencies --    364.7058               444.9559               461.1176
 Red. masses --      3.3768                 4.1726                 3.5037
 Frc consts  --      0.2646                 0.4867                 0.4389
 IR Inten    --      7.5946                 2.7768                26.3569

                     13                     14                     15
                      A                      A                      A
 Frequencies --    565.8524               571.5833               581.1803
 Red. masses --      3.2923                 7.6644                 6.9356
 Frc consts  --      0.6211                 1.4753                 1.3802
 IR Inten    --     18.0107                 1.9008                 5.8295

                     16                     17                     18
                      A                      A                      A
 Frequencies --    731.3505               842.4263               905.4399
 Red. masses --      5.2202                 1.9202                 1.6419
 Frc consts  --      1.6451                 0.8029                 0.7931
 IR Inten    --     13.5390               100.5758                54.5626

                     19                     20                     21
                      A                      A                      A
 Frequencies --    948.9411               993.4818              1009.4188
 Red. masses --      1.4358                 1.6942                 1.4913
 Frc consts  --      0.7618                 0.9852                 0.8953
 IR Inten    --      2.5375                 3.6349                36.9043

                     22                     23                     24
                      A                      A                      A
 Frequencies --   1037.3506              1056.9977              1105.8884
 Red. masses --      2.3891                 4.4095                 1.5537
 Frc consts  --      1.5147                 2.9026                 1.1196
 IR Inten    --     94.2055               169.8523                30.1291

                     25                     26                     27
                      A                      A                      A
 Frequencies --   1209.3165              1253.6647              1275.5648
 Red. masses --      4.0628                 3.9447                 2.5504
 Frc consts  --      3.5007                 3.6528                 2.4449
 IR Inten    --    198.3645                54.4193                68.5449

                     28                     29                     30
                      A                      A                      A
 Frequencies --   1328.7130              1383.9618              1402.0902
 Red. masses --      1.6803                 1.3403                 1.3131
 Frc consts  --      1.7478                 1.5125                 1.5209
 IR Inten    --     12.1881                 7.6515                 5.5064

                     31                     32                     33
                      A                      A                      A
 Frequencies --   1453.8506              1477.4084              1480.4354
 Red. masses --      1.7999                 1.0587                 1.0468
 Frc consts  --      2.2415                 1.3615                 1.3517
 IR Inten    --     21.5322                 1.1636                 2.0490

                     34                     35                     36
                      A                      A                      A
 Frequencies --   1493.8790              1521.5027              1632.7180
 Red. masses --      1.0560                 1.2855                 1.1057
 Frc consts  --      1.3884                 1.7533                 1.7366
 IR Inten    --      3.0622                36.4531                39.0917

                     37                     38                     39
                      A                      A                      A
 Frequencies --   3063.1508              3068.1188              3156.5363
 Red. masses --      1.0352                 1.0370                 1.1010
 Frc consts  --      5.7227                 5.7511                 6.4635
 IR Inten    --     13.9997                17.8544                 4.2115

                     40                     41                     42
                      A                      A                      A
 Frequencies --   3160.1290              3168.5732              3188.6141
 Red. masses --      1.1004                 1.1024                 1.1028
 Frc consts  --      6.4747                 6.5209                 6.6062
 IR Inten    --     25.2988                16.3478                 7.8751

                     43                     44                     45
                      A                      A                      A
 Frequencies --   3486.1286              3587.7882              3779.6959
 Red. masses --      1.0501                 1.0921                 1.0650
 Frc consts  --      7.5188                 8.2829                 8.9645
 IR Inten    --      1.2783                 3.7930                76.9923

 - Thermochemistry -
 -------------------
 Temperature   298.150 Kelvin.  Pressure   1.00000 Atm.
 Atom     1 has atomic number  8 and mass  15.99491

 Molecular mass:   125.06522 amu.
 Principal axes and moments of inertia in atomic units:
                           1         2         3
     Eigenvalues --   712.013431003.275601009.13564
           X            0.99797  -0.05322   0.03487
           Y            0.04986   0.99460   0.09098
           Z           -0.03953  -0.08906   0.99524
 This molecule is an asymmetric top.
 Rotational symmetry number  1.
 Warning -- assumption of classical behavior for rotation
           may cause significant error
 Rotational temperatures (Kelvin)      0.12165     0.08633     0.08583
 Rotational constants (GHZ):           2.53470     1.79885     1.78840
 Zero-point vibrational energy     361721.6 (Joules/Mol)
                                   86.45353 (Kcal/Mol)
 Warning -- explicit consideration of  15 degrees of freedom as
           vibrations may cause significant error
 Vibrational temperatures:    120.46   290.00   338.38   358.59   372.18
          (Kelvin)            385.93   418.67   492.82   507.11   524.73
                              640.19   663.45   814.14   822.38   836.19
                             1052.25  1212.06  1302.73  1365.31  1429.40
                             1452.33  1492.52  1520.78  1591.13  1739.94
                             1803.74  1835.25  1911.72  1991.21  2017.30
                             2091.77  2125.66  2130.02  2149.36  2189.10
                             2349.12  4407.19  4414.34  4541.55  4546.72
                             4558.87  4587.70  5015.76  5162.03  5438.14

 Zero-point correction=                           0.137772 (Hartree/Particle)
 Thermal correction to Energy=                    0.146936
 Thermal correction to Enthalpy=                  0.147880
 Thermal correction to Gibbs Free Energy=         0.104853
 Sum of electronic and zero-point Energies=           -486.229053
 Sum of electronic and thermal Energies=              -486.219890
 Sum of electronic and thermal Enthalpies=            -486.218945
 Sum of electronic and thermal Free Energies=         -486.261972

                     E (Thermal)             CV                S
                      KCal/Mol        Cal/Mol-Kelvin    Cal/Mol-Kelvin
 Total                   92.204             34.457             90.557
 Electronic               0.000              0.000              0.000
 Translational            0.889              2.981             40.385
 Rotational               0.889              2.981             28.068
 Vibrational             90.426             28.495             22.104
 Vibration     1          0.601              1.960              3.802
 Vibration     2          0.638              1.838              2.119
 Vibration     3          0.655              1.787              1.839
 Vibration     4          0.662              1.764              1.736
 Vibration     5          0.667              1.748              1.671
 Vibration     6          0.673              1.732              1.608
 Vibration     7          0.687              1.691              1.468
 Vibration     8          0.722              1.590              1.200
 Vibration     9          0.729              1.570              1.155
 Vibration    10          0.738              1.545              1.102
 Vibration    11          0.804              1.372              0.811
 Vibration    12          0.819              1.336              0.763
 Vibration    13          0.922              1.105              0.512
 Vibration    14          0.928              1.093              0.501
 Vibration    15          0.938              1.072              0.483

 Optimization completed.
    -- Stationary point found.
 Normal termination of Gaussian 16 at Tue Feb  8 13:38:11 2022.
