 Gaussian 16, Revision A.03,
 Gaussian 16:  ES64L-G16RevA.03 25-Dec-2016

 --------------------------
 # MP2/aug-cc-pVDZ opt freq
 --------------------------

 ---------------
 F Me Ref Closed
 ---------------
 Symbolic Z-matrix:
 Charge =  0 Multiplicity = 1

 SCF Done:  E(RHF) =  -429.937257509     A.U. after   12 cycles
 E2 =    -0.1203064278D+01 EUMP2 =    -0.43114032178686D+03
 SCF Done:  E(RHF) =  -429.946067175     A.U. after   11 cycles
 E2 =    -0.1198122701D+01 EUMP2 =    -0.43114418987648D+03
 SCF Done:  E(RHF) =  -429.946097093     A.U. after   10 cycles
 E2 =    -0.1198401004D+01 EUMP2 =    -0.43114449809747D+03
 SCF Done:  E(RHF) =  -429.946030776     A.U. after    9 cycles
 E2 =    -0.1198502965D+01 EUMP2 =    -0.43114453374083D+03
 SCF Done:  E(RHF) =  -429.945981754     A.U. after    9 cycles
 E2 =    -0.1198557083D+01 EUMP2 =    -0.43114453883681D+03
 SCF Done:  E(RHF) =  -429.945990643     A.U. after    8 cycles
 E2 =    -0.1198549985D+01 EUMP2 =    -0.43114454062734D+03
 SCF Done:  E(RHF) =  -429.945991608     A.U. after    7 cycles
 E2 =    -0.1198549460D+01 EUMP2 =    -0.43114454106876D+03
 SCF Done:  E(RHF) =  -429.945982432     A.U. after    8 cycles
 E2 =    -0.1198559130D+01 EUMP2 =    -0.43114454156242D+03
 SCF Done:  E(RHF) =  -429.945976534     A.U. after    8 cycles
 E2 =    -0.1198565638D+01 EUMP2 =    -0.43114454217242D+03
 SCF Done:  E(RHF) =  -429.945967960     A.U. after    8 cycles
 E2 =    -0.1198574784D+01 EUMP2 =    -0.43114454274377D+03
 SCF Done:  E(RHF) =  -429.945970409     A.U. after    8 cycles
 E2 =    -0.1198572738D+01 EUMP2 =    -0.43114454314697D+03
 SCF Done:  E(RHF) =  -429.945976564     A.U. after    8 cycles
 E2 =    -0.1198566893D+01 EUMP2 =    -0.43114454345655D+03
 Optimization completed.
    -- Stationary point found.
 Normal termination of Gaussian 16 at Tue Feb  8 13:00:51 2022.

 ----------------------------------------------------------------------
 #N Geom=AllCheck Guess=TCheck SCRF=Check GenChk RMP2(FC)/Aug-CC-pVDZ F
 req
 ----------------------------------------------------------------------

 Structure from the checkpoint file:  "/gscratch/scrubbed/gds001/Gau-23337.chk"
 ---------------
 F Me Ref Closed
 ---------------
 Charge =  0 Multiplicity = 1

                         Standard orientation:
 ---------------------------------------------------------------------
 Center     Atomic      Atomic             Coordinates (Angstroms)
 Number     Number       Type             X           Y           Z
 ---------------------------------------------------------------------
      1          8           0       -1.414454    1.085416   -0.381763
      2          6           0       -0.639846    0.005742   -0.003871
      3          1           0       -1.542589    1.027719   -1.340376
      4          6           0        0.808809    0.029855   -0.477239
      5          9           0       -1.251391   -1.162308   -0.450269
      6          9           0       -0.701713   -0.024288    1.362310
      7          1           0        0.758070    0.039188   -1.581575
      8          6           0        1.555252   -1.229585   -0.019862
      9          6           0        1.503566    1.307391    0.011656
     10          1           0        2.530958    1.343850   -0.381644
     11          1           0        1.555544    1.315001    1.111184
     12          1           0        0.971141    2.211186   -0.317068
     13          1           0        2.587046   -1.207007   -0.402830
     14          1           0        1.068942   -2.144728   -0.385456
     15          1           0        1.597764   -1.269599    1.079391
 ---------------------------------------------------------------------

 SCF Done:  E(RHF) =  -429.945976564     A.U. after    1 cycles
 E2 =    -0.1198566897D+01 EUMP2 =    -0.43114454346079D+03
 E2 =    -0.1198566897D+01 EUMP2 =    -0.43114454346079D+03

 The electronic state is 1-A.
 Alpha  occ. eigenvalues --  -26.32399 -26.32047 -20.61413 -11.47225 -11.26531
 Alpha  occ. eigenvalues --  -11.23764 -11.23620  -1.66755  -1.60148  -1.41655
 Alpha  occ. eigenvalues --   -1.10395  -0.94431  -0.94070  -0.84058  -0.78767
 Alpha  occ. eigenvalues --   -0.76637  -0.72564  -0.68101  -0.65495  -0.63570
 Alpha  occ. eigenvalues --   -0.62423  -0.61265  -0.59012  -0.56976  -0.54568
 Alpha  occ. eigenvalues --   -0.53738  -0.49725  -0.49492  -0.48488
 Alpha virt. eigenvalues --    0.02969   0.04186   0.04760   0.05334   0.06843
 Alpha virt. eigenvalues --    0.07222   0.07661   0.07827   0.10430   0.12555
 Alpha virt. eigenvalues --    0.13110   0.14208   0.14598   0.15072   0.15487

 Mulliken charges:
               1
     1  O   -0.793705
     2  C    2.303347
     3  H    0.153816
     4  C   -1.543716
     5  F   -0.711596
     6  F   -0.706346
     7  H   -0.068085
     8  C    0.708286
     9  C    0.704996
    10  H   -0.027675
    11  H    0.045757
    12  H   -0.031281
    13  H   -0.031791
    14  H   -0.042193
    15  H    0.040186
 Sum of Mulliken charges =  -0.00000

 Dipole moment (field-independent basis, Debye):
    X=              1.9771    Y=              0.6536    Z=             -2.4345  Tot=              3.2036
 Quadrupole moment (field-independent basis, Debye-Ang):
   XX=            -42.8630   YY=            -43.8929   ZZ=            -39.9263
   XY=             -1.0003   XZ=              2.7060   YZ=             -2.1304

  Exact polarizability:  59.292  -0.868  59.484   1.535  -0.382  53.364
 Approx polarizability:  46.209  -0.282  47.612   0.939   0.043  49.003

                      1                      2                      3
                      A                      A                      A
 Frequencies --     80.7290               147.3957               205.7663
 Red. masses --      3.1213                 1.1061                 1.1147
 Frc consts  --      0.0120                 0.0142                 0.0278
 IR Inten    --      0.4680               110.9369                 0.1981

                      4                      5                      6
                      A                      A                      A
 Frequencies --    229.4540               241.8160               272.4522
 Red. masses --      1.2855                 3.5260                 2.4367
 Frc consts  --      0.0399                 0.1215                 0.1066
 IR Inten    --      0.7805                 1.0832                 2.1705

                      7                      8                      9
                      A                      A                      A
 Frequencies --    340.1119               405.2276               456.9014
 Red. masses --      2.7234                 5.6147                 3.9972
 Frc consts  --      0.1856                 0.5432                 0.4916
 IR Inten    --      3.2104                 0.5022                14.4919

                     10                     11                     12
                      A                      A                      A
 Frequencies --    523.9667               563.7562               625.5891
 Red. masses --      4.3373                 8.8716                 3.5840
 Frc consts  --      0.7016                 1.6612                 0.8264
 IR Inten    --      3.8816                 2.9817                 8.7087

                     13                     14                     15
                      A                      A                      A
 Frequencies --    770.4161               922.1281               930.2949
 Red. masses --      5.5411                 2.2667                 1.1445
 Frc consts  --      1.9378                 1.1356                 0.5836
 IR Inten    --      1.3289                 6.4009                 0.2564

                     16                     17                     18
                      A                      A                      A
 Frequencies --    971.1684              1005.9925              1079.4209
 Red. masses --      1.4150                 2.6324                 2.2034
 Frc consts  --      0.7863                 1.5696                 1.5126
 IR Inten    --     17.4502               135.7845               102.3874

                     19                     20                     21
                      A                      A                      A
 Frequencies --   1148.8675              1167.5420              1195.5752
 Red. masses --      2.2634                 2.0482                 2.8128
 Frc consts  --      1.7601                 1.6450                 2.3689
 IR Inten    --     87.0470                51.7227               152.0134

                     22                     23                     24
                      A                      A                      A
 Frequencies --   1230.2684              1327.6618              1358.4907
 Red. masses --      1.8913                 1.4909                 2.2488
 Frc consts  --      1.6866                 1.5484                 2.4452
 IR Inten    --     50.5365                 0.5837               113.3107

                     25                     26                     27
                      A                      A                      A
 Frequencies --   1388.0672              1398.6991              1411.2391
 Red. masses --      1.3124                 1.8530                 1.2824
 Frc consts  --      1.4898                 2.1359                 1.5048
 IR Inten    --      1.2700                26.6467                18.4288

                     28                     29                     30
                      A                      A                      A
 Frequencies --   1481.3818              1483.6942              1495.5813
 Red. masses --      1.0446                 1.0442                 1.0463
 Frc consts  --      1.3506                 1.3543                 1.3788
 IR Inten    --      1.4133                 1.0100                 5.1864

                     31                     32                     33
                      A                      A                      A
 Frequencies --   1512.8515              3066.0925              3071.1141
 Red. masses --      1.0992                 1.0822                 1.0356
 Frc consts  --      1.4823                 5.9943                 5.7548
 IR Inten    --     27.6321                13.2009                16.3620

                     34                     35                     36
                      A                      A                      A
 Frequencies --   3072.5985              3160.5090              3163.6933
 Red. masses --      1.0373                 1.1022                 1.1016
 Frc consts  --      5.7697                 6.4864                 6.4963
 IR Inten    --     22.8665                 1.1524                30.5339

                     37                     38                     39
                      A                      A                      A
 Frequencies --   3175.1219              3178.2011              3816.4616
 Red. masses --      1.1020                 1.1019                 1.0656
 Frc consts  --      6.5458                 6.5580                 9.1449
 IR Inten    --     14.9491                13.9034                74.0575

 - Thermochemistry -
 -------------------
 Temperature   298.150 Kelvin.  Pressure   1.00000 Atm.
 Atom     1 has atomic number  8 and mass  15.99491

 Molecular mass:   110.05432 amu.
 Principal axes and moments of inertia in atomic units:
                           1         2         3
     Eigenvalues --   541.68363 762.70772 937.92014
           X            0.99903  -0.04122   0.01579
           Y            0.04179   0.99842  -0.03751
           Z           -0.01422   0.03813   0.99917
 This molecule is an asymmetric top.
 Rotational symmetry number  1.
 Warning -- assumption of classical behavior for rotation
           may cause significant error
 Rotational temperatures (Kelvin)      0.15990     0.11356     0.09235
 Rotational constants (GHZ):           3.33173     2.36623     1.92419
 Zero-point vibrational energy     317466.8 (Joules/Mol)
                                   75.87638 (Kcal/Mol)
 Warning -- explicit consideration of  11 degrees of freedom as
           vibrations may cause significant error
 Vibrational temperatures:    116.15   212.07   296.05   330.13   347.92
          (Kelvin)            392.00   489.35   583.03   657.38   753.87
                              811.12   900.08  1108.46  1326.74  1338.49
                             1397.29  1447.40  1553.05  1652.96  1679.83
                             1720.17  1770.08  1910.21  1954.57  1997.12
                             2012.42  2030.46  2131.38  2134.71  2151.81
                             2176.66  4411.42  4418.65  4420.78  4547.27
                             4551.85  4568.29  4572.72  5491.04

 Zero-point correction=                           0.120917 (Hartree/Particle)
 Thermal correction to Energy=                    0.129082
 Thermal correction to Enthalpy=                  0.130027
 Thermal correction to Gibbs Free Energy=         0.088739
 Sum of electronic and zero-point Energies=           -431.023627
 Sum of electronic and thermal Energies=              -431.015461
 Sum of electronic and thermal Enthalpies=            -431.014517
 Sum of electronic and thermal Free Energies=         -431.055805

                     E (Thermal)             CV                S
                      KCal/Mol        Cal/Mol-Kelvin    Cal/Mol-Kelvin
 Total                   81.000             29.096             86.897
 Electronic               0.000              0.000              0.000
 Translational            0.889              2.981             40.004
 Rotational               0.889              2.981             27.452
 Vibrational             79.223             23.135             19.442
 Vibration     1          0.600              1.962              3.873
 Vibration     2          0.617              1.906              2.706
 Vibration     3          0.640              1.832              2.081
 Vibration     4          0.652              1.796              1.883
 Vibration     5          0.658              1.776              1.789
 Vibration     6          0.675              1.724              1.581
 Vibration     7          0.720              1.595              1.212
 Vibration     8          0.770              1.459              0.944
 Vibration     9          0.815              1.346              0.775
 Vibration    10          0.879              1.197              0.601
 Vibration    11          0.920              1.110              0.516

 Optimization completed.
    -- Stationary point found.
 Normal termination of Gaussian 16 at Tue Feb  8 13:13:22 2022.
