 Gaussian 16, Revision A.03,
 Gaussian 16:  ES64L-G16RevA.03 25-Dec-2016

 --------------------------
 # MP2/aug-cc-pVDZ opt freq
 --------------------------

 -------------
 F Me Ref Open
 -------------
 Symbolic Z-matrix:
 Charge =  0 Multiplicity = 1

 SCF Done:  E(RHF) =  -429.949228820     A.U. after   12 cycles
 E2 =    -0.1195192338D+01 EUMP2 =    -0.43114442115751D+03
 SCF Done:  E(RHF) =  -429.949815293     A.U. after   11 cycles
 E2 =    -0.1198929950D+01 EUMP2 =    -0.43114874524237D+03
 SCF Done:  E(RHF) =  -429.950755603     A.U. after   10 cycles
 E2 =    -0.1198802819D+01 EUMP2 =    -0.43114955842220D+03
 SCF Done:  E(RHF) =  -429.950906640     A.U. after   10 cycles
 E2 =    -0.1198764585D+01 EUMP2 =    -0.43114967122530D+03
 SCF Done:  E(RHF) =  -429.950910520     A.U. after    8 cycles
 E2 =    -0.1198769221D+01 EUMP2 =    -0.43114967974101D+03
 SCF Done:  E(RHF) =  -429.950881543     A.U. after    8 cycles
 E2 =    -0.1198799059D+01 EUMP2 =    -0.43114968060195D+03
 Optimization completed.
    -- Stationary point found.
 Normal termination of Gaussian 16 at Tue Feb  8 12:55:10 2022.

 ----------------------------------------------------------------------
 #N Geom=AllCheck Guess=TCheck SCRF=Check GenChk RMP2(FC)/Aug-CC-pVDZ F
 req
 ----------------------------------------------------------------------

 Structure from the checkpoint file:  "/gscratch/scrubbed/gds001/Gau-23650.chk"
 -------------
 F Me Ref Open
 -------------
 Charge =  0 Multiplicity = 1

                         Standard orientation:
 ---------------------------------------------------------------------
 Center     Atomic      Atomic             Coordinates (Angstroms)
 Number     Number       Type             X           Y           Z
 ---------------------------------------------------------------------
      1          8           0       -1.293084    1.127397   -0.481863
      2          6           0       -0.628628    0.016800   -0.037593
      3          1           0       -2.215719    1.051989   -0.188986
      4          6           0        0.824432    0.026706   -0.475269
      5          9           0       -1.276616   -1.124970   -0.494955
      6          9           0       -0.733623   -0.070695    1.346437
      7          1           0        0.790056    0.044980   -1.577841
      8          6           0        1.536099   -1.247285   -0.004213
      9          6           0        1.527033    1.291113    0.036342
     10          1           0        2.571678    1.296563   -0.310615
     11          1           0        1.530294    1.307868    1.137227
     12          1           0        1.034094    2.203183   -0.328079
     13          1           0        2.571788   -1.246991   -0.376493
     14          1           0        1.035183   -2.152782   -0.374665
     15          1           0        1.565840   -1.286996    1.095405
 ---------------------------------------------------------------------

 SCF Done:  E(RHF) =  -429.950881543     A.U. after    1 cycles
 E2 =    -0.1198799054D+01 EUMP2 =    -0.43114968059733D+03
 E2 =    -0.1198799054D+01 EUMP2 =    -0.43114968059733D+03

 The electronic state is 1-A.
 Alpha  occ. eigenvalues --  -26.32102 -26.32095 -20.61762 -11.47080 -11.25992
 Alpha  occ. eigenvalues --  -11.23367 -11.23275  -1.66441  -1.59674  -1.42348
 Alpha  occ. eigenvalues --   -1.10265  -0.94099  -0.94064  -0.82819  -0.78205
 Alpha  occ. eigenvalues --   -0.76946  -0.72930  -0.68963  -0.67242  -0.62769
 Alpha  occ. eigenvalues --   -0.61192  -0.59726  -0.59145  -0.55873  -0.54219
 Alpha  occ. eigenvalues --   -0.53776  -0.49964  -0.49178  -0.49097
 Alpha virt. eigenvalues --    0.03573   0.04178   0.05031   0.05159   0.06631
 Alpha virt. eigenvalues --    0.07439   0.07711   0.07857   0.10880   0.11996
 Alpha virt. eigenvalues --    0.13577   0.14741   0.15305   0.15556   0.15705

 Mulliken charges:
               1
     1  O   -0.732050
     2  C    2.157613
     3  H    0.138640
     4  C   -1.433328
     5  F   -0.714525
     6  F   -0.718004
     7  H   -0.020565
     8  C    0.695106
     9  C    0.709144
    10  H   -0.032192
    11  H    0.027142
    12  H   -0.029686
    13  H   -0.032857
    14  H   -0.045997
    15  H    0.031558
 Sum of Mulliken charges =  -0.00000

 Dipole moment (field-independent basis, Debye):
    X=              0.6003    Y=              0.7178    Z=             -0.5395  Tot=              1.0801
 Quadrupole moment (field-independent basis, Debye-Ang):
   XX=            -36.9379   YY=            -43.8830   ZZ=            -44.0932
   XY=             -2.6865   XZ=             -0.7688   YZ=              0.3718

  Exact polarizability:  60.586  -0.928  59.348   0.674  -0.057  52.170
 Approx polarizability:  47.462  -0.053  47.466   0.116  -0.092  47.472

                      1                      2                      3
                      A                      A                      A
 Frequencies --     76.0245               208.7160               230.5610
 Red. masses --      3.3509                 1.1223                 1.4619
 Frc consts  --      0.0114                 0.0288                 0.0458
 IR Inten    --      0.0056                 0.0034                 0.3253

                      4                      5                      6
                      A                      A                      A
 Frequencies --    240.8261               261.3902               313.8505
 Red. masses --      3.0851                 2.2299                 1.1985
 Frc consts  --      0.1054                 0.0898                 0.0696
 IR Inten    --      2.2012                 4.9827                73.8498

                      7                      8                      9
                      A                      A                      A
 Frequencies --    340.4292               410.6183               462.5653
 Red. masses --      2.4044                 4.9550                 3.0810
 Frc consts  --      0.1642                 0.4922                 0.3884
 IR Inten    --     12.5172                16.4057                21.2775

                     10                     11                     12
                      A                      A                      A
 Frequencies --    538.2356               570.4013               613.0033
 Red. masses --      6.0178                 8.8435                 3.6113
 Frc consts  --      1.0271                 1.6953                 0.7995
 IR Inten    --     13.8869                 1.2469                10.9476

                     13                     14                     15
                      A                      A                      A
 Frequencies --    760.0857               918.2009               932.3041
 Red. masses --      4.4966                 2.3234                 1.1457
 Frc consts  --      1.5306                 1.1541                 0.5867
 IR Inten    --     10.0585                13.2081                 0.8767

                     16                     17                     18
                      A                      A                      A
 Frequencies --    973.4517               994.2915              1054.8021
 Red. masses --      1.4251                 2.4703                 2.5672
 Frc consts  --      0.7957                 1.4389                 1.6829
 IR Inten    --     21.6860               122.5225               126.9097

                     19                     20                     21
                      A                      A                      A
 Frequencies --   1140.3359              1166.6862              1206.1021
 Red. masses --      2.2798                 2.2151                 1.8972
 Frc consts  --      1.7467                 1.7765                 1.6261
 IR Inten    --     77.8079                29.1942                16.3783

                     22                     23                     24
                      A                      A                      A
 Frequencies --   1223.5981              1331.1107              1345.9525
 Red. masses --      3.4612                 1.4402                 1.4254
 Frc consts  --      3.0532                 1.5035                 1.5214
 IR Inten    --    218.6791                 4.9580                48.9433

                     25                     26                     27
                      A                      A                      A
 Frequencies --   1388.6662              1406.2829              1455.3442
 Red. masses --      1.3232                 1.3018                 1.9124
 Frc consts  --      1.5034                 1.5168                 2.3865
 IR Inten    --      0.9220                 0.7540                41.2157

                     28                     29                     30
                      A                      A                      A
 Frequencies --   1482.2664              1484.4518              1495.9411
 Red. masses --      1.0487                 1.0418                 1.0484
 Frc consts  --      1.3576                 1.3526                 1.3823
 IR Inten    --      3.2876                 0.4466                 5.3046

                     31                     32                     33
                      A                      A                      A
 Frequencies --   1519.3621              3070.6795              3072.6180
 Red. masses --      1.2170                 1.0359                 1.0364
 Frc consts  --      1.6553                 5.7548                 5.7648
 IR Inten    --     43.7829                16.4715                17.2939

                     34                     35                     36
                      A                      A                      A
 Frequencies --   3093.7880              3160.0042              3164.2264
 Red. masses --      1.0835                 1.1021                 1.1015
 Frc consts  --      6.1103                 6.4842                 6.4978
 IR Inten    --      8.8840                 3.2321                30.1378

                     37                     38                     39
                      A                      A                      A
 Frequencies --   3176.7293              3178.2891              3780.7474
 Red. masses --      1.1021                 1.1018                 1.0651
 Frc consts  --      6.5531                 6.5576                 8.9698
 IR Inten    --     13.3385                14.6080                73.6765

 - Thermochemistry -
 -------------------
 Temperature   298.150 Kelvin.  Pressure   1.00000 Atm.
 Atom     1 has atomic number  8 and mass  15.99491

 Molecular mass:   110.05432 amu.
 Principal axes and moments of inertia in atomic units:
                           1         2         3
     Eigenvalues --   540.38368 761.39715 937.06102
           X            0.99851  -0.05450   0.00320
           Y            0.05453   0.99845  -0.01123
           Z           -0.00258   0.01139   0.99993
 This molecule is an asymmetric top.
 Rotational symmetry number  1.
 Warning -- assumption of classical behavior for rotation
           may cause significant error
 Rotational temperatures (Kelvin)      0.16028     0.11376     0.09243
 Rotational constants (GHZ):           3.33974     2.37030     1.92596
 Zero-point vibrational energy     318463.5 (Joules/Mol)
                                   76.11460 (Kcal/Mol)
 Warning -- explicit consideration of  12 degrees of freedom as
           vibrations may cause significant error
 Vibrational temperatures:    109.38   300.30   331.73   346.50   376.08
          (Kelvin)            451.56   489.80   590.79   665.53   774.40
                              820.68   881.97  1093.59  1321.09  1341.38
                             1400.58  1430.56  1517.62  1640.69  1678.60
                             1735.31  1760.48  1915.17  1936.53  1997.98
                             2023.33  2093.92  2132.65  2135.80  2152.33
                             2186.02  4418.02  4420.81  4451.27  4546.54
                             4552.62  4570.60  4572.85  5439.65

 Zero-point correction=                           0.121296 (Hartree/Particle)
 Thermal correction to Energy=                    0.129226
 Thermal correction to Enthalpy=                  0.130171
 Thermal correction to Gibbs Free Energy=         0.089476
 Sum of electronic and zero-point Energies=           -431.028384
 Sum of electronic and thermal Energies=              -431.020454
 Sum of electronic and thermal Enthalpies=            -431.019510
 Sum of electronic and thermal Free Energies=         -431.060204

                     E (Thermal)             CV                S
                      KCal/Mol        Cal/Mol-Kelvin    Cal/Mol-Kelvin
 Total                   81.091             28.853             85.648
 Electronic               0.000              0.000              0.000
 Translational            0.889              2.981             40.004
 Rotational               0.889              2.981             27.447
 Vibrational             79.313             22.892             18.198
 Vibration     1          0.599              1.965              3.991
 Vibration     2          0.642              1.827              2.055
 Vibration     3          0.652              1.794              1.875
 Vibration     4          0.658              1.778              1.797
 Vibration     5          0.669              1.743              1.652
 Vibration     6          0.702              1.647              1.342
 Vibration     7          0.720              1.595              1.210
 Vibration     8          0.775              1.447              0.924
 Vibration     9          0.820              1.333              0.759
 Vibration    10          0.893              1.165              0.569
 Vibration    11          0.927              1.095              0.503
 Vibration    12          0.972              1.004              0.428

                           ! Non-Optimized Parameters !
 Normal termination of Gaussian 16 at Tue Feb  8 13:07:28 2022.
