 Gaussian 16, Revision A.03,
 Gaussian 16:  ES64L-G16RevA.03 25-Dec-2016

 --------------------------
 # MP2/aug-cc-pVDZ opt freq
 --------------------------

 -----------
 Me F Closed
 -----------
 Symbolic Z-matrix:
 Charge =  0 Multiplicity = 1

 SCF Done:  E(RHF) =  -484.979447611     A.U. after   13 cycles
 E2 =    -0.1378700418D+01 EUMP2 =    -0.48635814802908D+03
 SCF Done:  E(RHF) =  -484.981325700     A.U. after   11 cycles
 E2 =    -0.1382792122D+01 EUMP2 =    -0.48636411782200D+03
 SCF Done:  E(RHF) =  -484.982878269     A.U. after   11 cycles
 E2 =    -0.1382551501D+01 EUMP2 =    -0.48636542976968D+03
 SCF Done:  E(RHF) =  -484.983237226     A.U. after   11 cycles
 E2 =    -0.1382383159D+01 EUMP2 =    -0.48636562038515D+03
 SCF Done:  E(RHF) =  -484.983372653     A.U. after   11 cycles
 E2 =    -0.1382343760D+01 EUMP2 =    -0.48636571641253D+03
 SCF Done:  E(RHF) =  -484.983584684     A.U. after   10 cycles
 E2 =    -0.1382241890D+01 EUMP2 =    -0.48636582657385D+03
 SCF Done:  E(RHF) =  -484.983639876     A.U. after    8 cycles
 E2 =    -0.1382193013D+01 EUMP2 =    -0.48636583288927D+03
 SCF Done:  E(RHF) =  -484.983655622     A.U. after    8 cycles
 E2 =    -0.1382178436D+01 EUMP2 =    -0.48636583405846D+03
 Optimization completed.
    -- Stationary point found.
 Normal termination of Gaussian 16 at Tue Feb  8 13:05:19 2022.

 ----------------------------------------------------------------------
 #N Geom=AllCheck Guess=TCheck SCRF=Check GenChk RMP2(FC)/Aug-CC-pVDZ F
 req
 ----------------------------------------------------------------------

 Structure from the checkpoint file:  "/gscratch/scrubbed/gds001/Gau-23497.chk"
 -----------
 Me F Closed
 -----------
 Charge =  0 Multiplicity = 1

                         Standard orientation:
 ---------------------------------------------------------------------
 Center     Atomic      Atomic             Coordinates (Angstroms)
 Number     Number       Type             X           Y           Z
 ---------------------------------------------------------------------
      1          8           0       -1.092139   -0.293074   -1.448483
      2          6           0       -0.772032   -0.040217   -0.074810
      3          1           0       -0.489511   -0.994360   -1.748198
      4          6           0        0.760312    0.039629    0.041279
      5          6           0       -1.305283   -1.167611    0.818077
      6          6           0       -1.408769    1.298908    0.282115
      7          7           0        1.405951   -1.151220   -0.400704
      8          9           0        1.092532    0.365286    1.364279
      9          9           0        1.253942    1.073034   -0.720161
     10          1           0        1.305728   -1.885982    0.298325
     11          1           0        2.400030   -0.966518   -0.537295
     12          1           0       -1.004226    2.096970   -0.354614
     13          1           0       -1.228252    1.545852    1.337974
     14          1           0       -2.492441    1.224686    0.109354
     15          1           0       -0.920952   -2.147199    0.491478
     16          1           0       -2.400731   -1.194430    0.725541
     17          1           0       -1.037828   -1.005023    1.873208
 ---------------------------------------------------------------------

 SCF Done:  E(RHF) =  -484.983655622     A.U. after    1 cycles
 E2 =    -0.1382178436D+01 EUMP2 =    -0.48636583405858D+03
 E2 =    -0.1382178436D+01 EUMP2 =    -0.48636583405858D+03

 The electronic state is 1-A.
 Alpha  occ. eigenvalues --  -26.32477 -26.31877 -20.57247 -15.59824 -11.44955
 Alpha  occ. eigenvalues --  -11.31384 -11.24056 -11.22756  -1.66031  -1.59743
 Alpha  occ. eigenvalues --   -1.37286  -1.23338  -1.07241  -0.95180  -0.93141
 Alpha  occ. eigenvalues --   -0.81534  -0.77127  -0.75540  -0.74617  -0.68964
 Alpha  occ. eigenvalues --   -0.67440  -0.64635  -0.63287  -0.62223  -0.60609
 Alpha  occ. eigenvalues --   -0.60391  -0.55837  -0.54336  -0.53406  -0.51868
 Alpha  occ. eigenvalues --   -0.48415  -0.47012  -0.45000
 Alpha virt. eigenvalues --    0.02986   0.04252   0.05014   0.05371   0.06441
 Alpha virt. eigenvalues --    0.06856   0.07541   0.07679   0.09273   0.10480
 Alpha virt. eigenvalues --    0.12890   0.13406   0.14208   0.14538   0.14850

 Mulliken charges:
               1
     1  O   -0.769304
     2  C   -1.766205
     3  H    0.131224
     4  C    2.196387
     5  C    0.871922
     6  C    0.932880
     7  N   -0.536706
     8  F   -0.758277
     9  F   -0.740568
    10  H    0.115557
    11  H    0.036644
    12  H    0.032878
    13  H    0.109638
    14  H    0.062716
    15  H   -0.046178
    16  H    0.031525
    17  H    0.095865
 Sum of Mulliken charges =  -0.00000

 Dipole moment (field-independent basis, Debye):
    X=              0.6233    Y=             -2.5262    Z=              1.2677  Tot=              2.8943
 Quadrupole moment (field-independent basis, Debye-Ang):
   XX=            -46.0472   YY=            -45.4871   ZZ=            -52.2920
   XY=             -4.0668   XZ=             -3.6453   YZ=             -0.0495

  Exact polarizability:  67.667  -2.165  66.710  -1.642   0.281  63.842
 Approx polarizability:  53.870  -0.599  54.654  -0.351   0.193  55.534

                      1                      2                      3
                      A                      A                      A
 Frequencies --     91.3250               209.5647               228.8226
 Red. masses --      4.0399                 1.1140                 2.3472
 Frc consts  --      0.0199                 0.0288                 0.0724
 IR Inten    --      2.7342                 0.0114                 0.8914

                      4                      5                      6
                      A                      A                      A
 Frequencies --    250.7467               262.8576               285.3612
 Red. masses --      2.9221                 1.4943                 1.2310
 Frc consts  --      0.1082                 0.0608                 0.0591
 IR Inten    --      1.4206                 4.1404                 3.6750

                      7                      8                      9
                      A                      A                      A
 Frequencies --    340.7036               356.4176               357.1258
 Red. masses --      3.4245                 2.9641                 2.3797
 Frc consts  --      0.2342                 0.2219                 0.1788
 IR Inten    --     14.6020                 3.7038                 1.1413

                     10                     11                     12
                      A                      A                      A
 Frequencies --    414.1652               439.3986               474.1262
 Red. masses --      1.9535                 2.7413                 2.0517
 Frc consts  --      0.1974                 0.3118                 0.2717
 IR Inten    --     26.6552                62.3361                40.8348

                     13                     14                     15
                      A                      A                      A
 Frequencies --    538.7410               569.3621               573.2367
 Red. masses --      3.3889                 4.0215                 4.5291
 Frc consts  --      0.5795                 0.7681                 0.8769
 IR Inten    --      8.2437                16.8630                34.2700

                     16                     17                     18
                      A                      A                      A
 Frequencies --    721.5191               845.1609               884.1595
 Red. masses --      4.1344                 1.6948                 2.4332
 Frc consts  --      1.2681                 0.7133                 1.1207
 IR Inten    --      9.7111                68.4915                 8.9873

                     19                     20                     21
                      A                      A                      A
 Frequencies --    945.4752               985.4892              1006.7674
 Red. masses --      1.4064                 2.0037                 1.3610
 Frc consts  --      0.7408                 1.1465                 0.8128
 IR Inten    --      1.2890                49.9539                 8.6089

                     22                     23                     24
                      A                      A                      A
 Frequencies --   1013.2474              1060.6777              1150.6192
 Red. masses --      2.2540                 4.2953                 1.8371
 Frc consts  --      1.3634                 2.8471                 1.4330
 IR Inten    --     72.1781               210.7600                77.9491

                     25                     26                     27
                      A                      A                      A
 Frequencies --   1220.4322              1229.9559              1279.0726
 Red. masses --      2.9184                 2.5311                 3.4565
 Frc consts  --      2.5611                 2.2560                 3.3318
 IR Inten    --     28.3175                44.5105               108.5423

                     28                     29                     30
                      A                      A                      A
 Frequencies --   1350.9398              1384.9782              1404.3064
 Red. masses --      1.5083                 1.4850                 1.4751
 Frc consts  --      1.6219                 1.6782                 1.7139
 IR Inten    --     41.1910                 6.1413                38.7348

                     31                     32                     33
                      A                      A                      A
 Frequencies --   1417.0289              1473.3633              1482.7880
 Red. masses --      1.9830                 1.0532                 1.0480
 Frc consts  --      2.3460                 1.3470                 1.3575
 IR Inten    --     17.8353                 1.9411                 1.3665

                     34                     35                     36
                      A                      A                      A
 Frequencies --   1497.6899              1510.7465              1626.5047
 Red. masses --      1.0982                 1.1280                 1.1208
 Frc consts  --      1.4514                 1.5169                 1.7469
 IR Inten    --      5.1246                17.2200                59.4557

                     37                     38                     39
                      A                      A                      A
 Frequencies --   3063.9773              3081.1900              3156.3792
 Red. masses --      1.0358                 1.0352                 1.1007
 Frc consts  --      5.7295                 5.7903                 6.4610
 IR Inten    --     14.1031                11.0563                20.2206

                     40                     41                     42
                      A                      A                      A
 Frequencies --   3173.1582              3179.1178              3191.3451
 Red. masses --      1.1027                 1.1019                 1.1028
 Frc consts  --      6.5416                 6.5614                 6.6177
 IR Inten    --      2.5965                15.8498                 8.4036

                     43                     44                     45
                      A                      A                      A
 Frequencies --   3522.9554              3629.7410              3747.3624
 Red. masses --      1.0501                 1.0931                 1.0654
 Frc consts  --      7.6789                 8.4849                 8.8152
 IR Inten    --     13.9384                22.6813                49.7181

 - Thermochemistry -
 -------------------
 Temperature   298.150 Kelvin.  Pressure   1.00000 Atm.
 Atom     1 has atomic number  8 and mass  15.99491

 Molecular mass:   125.06522 amu.
 Principal axes and moments of inertia in atomic units:
                           1         2         3
     Eigenvalues --   715.985701006.336121013.17682
           X            0.99343  -0.08019  -0.08165
           Y            0.08467   0.99500   0.05300
           Z            0.07699  -0.05957   0.99525
 This molecule is an asymmetric top.
 Rotational symmetry number  1.
 Warning -- assumption of classical behavior for rotation
           may cause significant error
 Rotational temperatures (Kelvin)      0.12097     0.08607     0.08549
 Rotational constants (GHZ):           2.52064     1.79338     1.78127
 Zero-point vibrational energy     362636.6 (Joules/Mol)
                                   86.67222 (Kcal/Mol)
 Warning -- explicit consideration of  15 degrees of freedom as
           vibrations may cause significant error
 Vibrational temperatures:    131.40   301.52   329.22   360.77   378.19
          (Kelvin)            410.57   490.20   512.81   513.82   595.89
                              632.20   682.16   775.13   819.19   824.76
                             1038.11  1216.00  1272.11  1360.33  1417.90
                             1448.51  1457.84  1526.08  1655.48  1755.93
                             1769.63  1840.30  1943.70  1992.67  2020.48
                             2038.79  2119.84  2133.40  2154.84  2173.63
                             2340.18  4408.38  4433.15  4541.33  4565.47
                             4574.04  4591.63  5068.75  5222.39  5391.62

 Zero-point correction=                           0.138121 (Hartree/Particle)
 Thermal correction to Energy=                    0.147132
 Thermal correction to Enthalpy=                  0.148077
 Thermal correction to Gibbs Free Energy=         0.105419
 Sum of electronic and zero-point Energies=           -486.227713
 Sum of electronic and thermal Energies=              -486.218702
 Sum of electronic and thermal Enthalpies=            -486.217757
 Sum of electronic and thermal Free Energies=         -486.260415

                     E (Thermal)             CV                S
                      KCal/Mol        Cal/Mol-Kelvin    Cal/Mol-Kelvin
 Total                   92.327             34.289             89.780
 Electronic               0.000              0.000              0.000
 Translational            0.889              2.981             40.385
 Rotational               0.889              2.981             28.081
 Vibrational             90.550             28.327             21.314
 Vibration     1          0.602              1.955              3.631
 Vibration     2          0.642              1.826              2.047
 Vibration     3          0.651              1.797              1.888
 Vibration     4          0.663              1.762              1.725
 Vibration     5          0.670              1.741              1.643
 Vibration     6          0.683              1.701              1.501
 Vibration     7          0.720              1.594              1.209
 Vibration     8          0.732              1.562              1.138
 Vibration     9          0.732              1.561              1.135
 Vibration    10          0.778              1.439              0.912
 Vibration    11          0.799              1.384              0.828
 Vibration    12          0.831              1.307              0.726
 Vibration    13          0.894              1.164              0.568
 Vibration    14          0.925              1.098              0.505
 Vibration    15          0.929              1.089              0.498

                           ! Non-Optimized Parameters !
 Normal termination of Gaussian 16 at Tue Feb  8 13:29:23 2022.
