 Gaussian 16, Revision A.03,
 Gaussian 16:  ES64L-G16RevA.03 25-Dec-2016

 --------------------------
 # MP2/aug-cc-pVDZ opt freq
 --------------------------

 ---------
 Me F Open
 ---------
 Symbolic Z-matrix:
 Charge =  0 Multiplicity = 1

 SCF Done:  E(RHF) =  -484.971281790     A.U. after   13 cycles
 E2 =    -0.1376902475D+01 EUMP2 =    -0.48634818426484D+03
 SCF Done:  E(RHF) =  -484.975524272     A.U. after   12 cycles
 E2 =    -0.1381826875D+01 EUMP2 =    -0.48635735114773D+03
 SCF Done:  E(RHF) =  -484.977060707     A.U. after   11 cycles
 E2 =    -0.1381749014D+01 EUMP2 =    -0.48635880972182D+03
 SCF Done:  E(RHF) =  -484.977349828     A.U. after   10 cycles
 E2 =    -0.1381782651D+01 EUMP2 =    -0.48635913247844D+03
 SCF Done:  E(RHF) =  -484.977432738     A.U. after   10 cycles
 E2 =    -0.1381827873D+01 EUMP2 =    -0.48635926061158D+03
 SCF Done:  E(RHF) =  -484.977393181     A.U. after   11 cycles
 E2 =    -0.1381934162D+01 EUMP2 =    -0.48635932734220D+03
 SCF Done:  E(RHF) =  -484.977384161     A.U. after   10 cycles
 E2 =    -0.1381989292D+01 EUMP2 =    -0.48635937345300D+03
 SCF Done:  E(RHF) =  -484.977423965     A.U. after   10 cycles
 E2 =    -0.1382010934D+01 EUMP2 =    -0.48635943489828D+03
 SCF Done:  E(RHF) =  -484.977443402     A.U. after   10 cycles
 E2 =    -0.1382011941D+01 EUMP2 =    -0.48635945534292D+03
 SCF Done:  E(RHF) =  -484.977496642     A.U. after    9 cycles
 E2 =    -0.1381974065D+01 EUMP2 =    -0.48635947070688D+03
 E2 =    -0.1381972800D+01 EUMP2 =    -0.48635947827839D+03
 E2 =    -0.1381978101D+01 EUMP2 =    -0.48635948360137D+03
 E2 =    -0.1381980909D+01 EUMP2 =    -0.48635948949565D+03
 E2 =    -0.1381980832D+01 EUMP2 =    -0.48635949340105D+03
 E2 =    -0.1381985336D+01 EUMP2 =    -0.48635949513679D+03
 E2 =    -0.1382573617D+01 EUMP2 =    -0.48630970187069D+03
 E2 =    -0.1382051341D+01 EUMP2 =    -0.48636008434637D+03
 SCF Done:  E(RHF) =  -484.979162302     A.U. after   13 cycles
 E2 =    -0.1382684924D+01 EUMP2 =    -0.48636184722547D+03
 SCF Done:  E(RHF) =  -484.981151269     A.U. after   12 cycles
 E2 =    -0.1381880457D+01 EUMP2 =    -0.48636303172570D+03
 SCF Done:  E(RHF) =  -484.969159032     A.U. after   12 cycles
 E2 =    -0.1377133709D+01 EUMP2 =    -0.48634629274074D+03
 SCF Done:  E(RHF) =  -484.981555745     A.U. after   11 cycles
 E2 =    -0.1382271868D+01 EUMP2 =    -0.48636382761323D+03
 SCF Done:  E(RHF) =  -484.981788365     A.U. after   11 cycles
 E2 =    -0.1382157205D+01 EUMP2 =    -0.48636394556947D+03
 SCF Done:  E(RHF) =  -484.980684486     A.U. after   12 cycles
 E2 =    -0.1381883149D+01 EUMP2 =    -0.48636256763553D+03
 SCF Done:  E(RHF) =  -484.982035674     A.U. after   10 cycles
 E2 =    -0.1382014041D+01 EUMP2 =    -0.48636404971484D+03
 SCF Done:  E(RHF) =  -484.982044496     A.U. after    9 cycles
 E2 =    -0.1382010497D+01 EUMP2 =    -0.48636405499332D+03
 SCF Done:  E(RHF) =  -484.982057455     A.U. after    8 cycles
 E2 =    -0.1381998902D+01 EUMP2 =    -0.48636405635737D+03
 Optimization completed.
    -- Stationary point found.
 Normal termination of Gaussian 16 at Tue Feb  8 13:42:11 2022.

 ----------------------------------------------------------------------
 #N Geom=AllCheck Guess=TCheck SCRF=Check GenChk RMP2(FC)/Aug-CC-pVDZ F
 req
 ----------------------------------------------------------------------

 Structure from the checkpoint file:  "/gscratch/scrubbed/gds001/Gau-23155.chk"
 ---------
 Me F Open
 ---------
 Charge =  0 Multiplicity = 1

                         Standard orientation:
 ---------------------------------------------------------------------
 Center     Atomic      Atomic             Coordinates (Angstroms)
 Number     Number       Type             X           Y           Z
 ---------------------------------------------------------------------
      1          8           0        1.139157    0.208344   -1.439835
      2          6           0        0.768603    0.040083   -0.066030
      3          1           0        0.724384   -0.508481   -1.944395
      4          6           0       -0.769929    0.006997    0.025449
      5          6           0        1.327923    1.254518    0.670826
      6          6           0        1.348212   -1.263338    0.494558
      7          7           0       -1.428372    1.165950   -0.431168
      8          9           0       -1.121317   -0.328098    1.347537
      9          9           0       -1.241652   -1.060572   -0.730074
     10          1           0       -1.129882    1.986516    0.091030
     11          1           0       -2.436968    1.053778   -0.330324
     12          1           0        0.919086   -2.136505   -0.019310
     13          1           0        1.148277   -1.358794    1.571268
     14          1           0        2.434826   -1.252552    0.325898
     15          1           0        1.023231    2.185572    0.169909
     16          1           0        2.426404    1.208109    0.647814
     17          1           0        0.993854    1.262430    1.718982
 ---------------------------------------------------------------------

 SCF Done:  E(RHF) =  -484.982057455     A.U. after    1 cycles
 E2 =    -0.1381998914D+01 EUMP2 =    -0.48636405636842D+03
 E2 =    -0.1381998914D+01 EUMP2 =    -0.48636405636842D+03

 The electronic state is 1-A.
 Alpha  occ. eigenvalues --  -26.32382 -26.31382 -20.57717 -15.58740 -11.44719
 Alpha  occ. eigenvalues --  -11.31730 -11.24049 -11.23307  -1.65519  -1.59239
 Alpha  occ. eigenvalues --   -1.37590  -1.22942  -1.07399  -0.95431  -0.92924
 Alpha  occ. eigenvalues --   -0.81548  -0.76622  -0.75420  -0.74526  -0.68429
 Alpha  occ. eigenvalues --   -0.66934  -0.64902  -0.63020  -0.62415  -0.60683
 Alpha  occ. eigenvalues --   -0.60226  -0.55281  -0.54767  -0.54194  -0.52075
 Alpha  occ. eigenvalues --   -0.49045  -0.45747  -0.45141
 Alpha virt. eigenvalues --    0.03374   0.04219   0.04800   0.05474   0.06356
 Alpha virt. eigenvalues --    0.06820   0.07325   0.07839   0.09626   0.10782
 Alpha virt. eigenvalues --    0.12381   0.13306   0.14354   0.14719   0.14945

 Mulliken charges:
               1
     1  O   -0.788797
     2  C   -1.557573
     3  H    0.120500
     4  C    2.124059
     5  C    0.806275
     6  C    0.882591
     7  N   -0.416151
     8  F   -0.769495
     9  F   -0.759612
    10  H    0.053306
    11  H    0.033623
    12  H   -0.019619
    13  H    0.095546
    14  H    0.043372
    15  H    0.019795
    16  H    0.030543
    17  H    0.101635
 Sum of Mulliken charges =  -0.00000

 Dipole moment (field-independent basis, Debye):
    X=              0.0300    Y=              0.9645    Z=              1.0432  Tot=              1.4211
 Quadrupole moment (field-independent basis, Debye-Ang):
   XX=            -46.6188   YY=            -45.5967   ZZ=            -51.4310
   XY=             -4.4976   XZ=              2.4106   YZ=              4.1920

  Exact polarizability:  67.277  -1.775  67.000   1.704   0.044  63.883
 Approx polarizability:  53.566   0.596  54.818   0.280   0.705  55.501

                      1                      2                      3
                      A                      A                      A
 Frequencies --     70.0447               205.0032               215.9041
 Red. masses --      4.0909                 1.0571                 2.1556
 Frc consts  --      0.0118                 0.0262                 0.0592
 IR Inten    --      2.0536                20.8899                11.2582

                      4                      5                      6
                      A                      A                      A
 Frequencies --    245.2231               259.3735               280.7044
 Red. masses --      1.1022                 3.4449                 1.6762
 Frc consts  --      0.0391                 0.1365                 0.0778
 IR Inten    --      8.7611                 0.4917                 9.1143

                      7                      8                      9
                      A                      A                      A
 Frequencies --    317.1328               351.8409               357.1956
 Red. masses --      1.3316                 2.4272                 2.3148
 Frc consts  --      0.0789                 0.1770                 0.1740
 IR Inten    --     87.0931                28.6233                 1.3118

                     10                     11                     12
                      A                      A                      A
 Frequencies --    363.7163               424.5262               454.6797
 Red. masses --      3.6909                 2.8844                 4.2873
 Frc consts  --      0.2877                 0.3063                 0.5222
 IR Inten    --      5.4869                 9.6469                16.2994

                     13                     14                     15
                      A                      A                      A
 Frequencies --    537.0560               564.0167               568.3271
 Red. masses --      3.6402                 5.7766                 3.4575
 Frc consts  --      0.6186                 1.0827                 0.6580
 IR Inten    --     11.6794                21.6107                35.1824

                     16                     17                     18
                      A                      A                      A
 Frequencies --    719.0399               785.3636               879.9540
 Red. masses --      3.8265                 1.8344                 2.6911
 Frc consts  --      1.1656                 0.6666                 1.2277
 IR Inten    --     14.8944                75.9116                10.1844

                     19                     20                     21
                      A                      A                      A
 Frequencies --    945.7611               978.9610              1004.3706
 Red. masses --      1.4221                 2.1275                 1.5159
 Frc consts  --      0.7494                 1.2013                 0.9010
 IR Inten    --      3.6236                37.9084                20.6611

                     22                     23                     24
                      A                      A                      A
 Frequencies --   1011.2648              1019.6678              1143.8449
 Red. masses --      1.5605                 8.7176                 1.6470
 Frc consts  --      0.9403                 5.3403                 1.2696
 IR Inten    --     20.5972               254.3908                48.8360

                     25                     26                     27
                      A                      A                      A
 Frequencies --   1216.1226              1225.1682              1290.0394
 Red. masses --      2.6707                 3.1179                 2.6369
 Frc consts  --      2.3272                 2.7574                 2.5855
 IR Inten    --     48.2807                66.7531                75.3834

                     28                     29                     30
                      A                      A                      A
 Frequencies --   1349.0302              1388.0664              1405.7235
 Red. masses --      1.4560                 1.6046                 1.3979
 Frc consts  --      1.5612                 1.8216                 1.6275
 IR Inten    --     28.8834                 6.0341                28.6700

                     31                     32                     33
                      A                      A                      A
 Frequencies --   1416.4968              1473.8714              1483.9600
 Red. masses --      2.3392                 1.0548                 1.0590
 Frc consts  --      2.7654                 1.3500                 1.3740
 IR Inten    --     30.1376                 2.2254                 1.7806

                     34                     35                     36
                      A                      A                      A
 Frequencies --   1497.6377              1513.2170              1632.5661
 Red. masses --      1.0950                 1.1135                 1.1300
 Frc consts  --      1.4470                 1.5023                 1.7744
 IR Inten    --      5.4263                18.9976                67.9547

                     37                     38                     39
                      A                      A                      A
 Frequencies --   3072.0749              3074.6828              3168.5333
 Red. masses --      1.0349                 1.0353                 1.1020
 Frc consts  --      5.7546                 5.7665                 6.5187
 IR Inten    --     14.4196                 7.9171                12.0008

                     40                     41                     42
                      A                      A                      A
 Frequencies --   3171.8362              3176.8112              3181.6452
 Red. masses --      1.1020                 1.1031                 1.1024
 Frc consts  --      6.5319                 6.5589                 6.5750
 IR Inten    --     16.0296                 2.2352                15.5948

                     43                     44                     45
                      A                      A                      A
 Frequencies --   3534.5799              3647.0843              3786.4480
 Red. masses --      1.0504                 1.0928                 1.0660
 Frc consts  --      7.7321                 8.5638                 9.0045
 IR Inten    --     12.1920                22.0453                37.9908

 - Thermochemistry -
 -------------------
 Temperature   298.150 Kelvin.  Pressure   1.00000 Atm.
 Atom     1 has atomic number  8 and mass  15.99491

 Molecular mass:   125.06522 amu.
 Principal axes and moments of inertia in atomic units:
                           1         2         3
     Eigenvalues --   714.596621007.502351021.51918
           X            0.99403  -0.09668   0.05066
           Y            0.08285   0.97049   0.22645
           Z           -0.07105  -0.22091   0.97270
 This molecule is an asymmetric top.
 Rotational symmetry number  1.
 Warning -- assumption of classical behavior for rotation
           may cause significant error
 Rotational temperatures (Kelvin)      0.12121     0.08597     0.08479
 Rotational constants (GHZ):           2.52554     1.79130     1.76672
 Zero-point vibrational energy     361323.5 (Joules/Mol)
                                   86.35838 (Kcal/Mol)
 Warning -- explicit consideration of  15 degrees of freedom as
           vibrations may cause significant error
 Vibrational temperatures:    100.78   294.95   310.64   352.82   373.18
          (Kelvin)            403.87   456.28   506.22   513.92   523.31
                              610.80   654.18   772.70   811.49   817.70
                             1034.54  1129.96  1266.06  1360.74  1408.51
                             1445.07  1454.98  1467.07  1645.74  1749.73
                             1762.74  1856.08  1940.95  1997.12  2022.52
                             2038.02  2120.57  2135.09  2154.77  2177.18
                             2348.90  4420.03  4423.78  4558.81  4563.56
                             4570.72  4577.68  5085.47  5247.34  5447.85

 Zero-point correction=                           0.137621 (Hartree/Particle)
 Thermal correction to Energy=                    0.146864
 Thermal correction to Enthalpy=                  0.147808
 Thermal correction to Gibbs Free Energy=         0.104538
 Sum of electronic and zero-point Energies=           -486.226436
 Sum of electronic and thermal Energies=              -486.217192
 Sum of electronic and thermal Enthalpies=            -486.216248
 Sum of electronic and thermal Free Energies=         -486.259519

                     E (Thermal)             CV                S
                      KCal/Mol        Cal/Mol-Kelvin    Cal/Mol-Kelvin
 Total                   92.159             34.779             91.071
 Electronic               0.000              0.000              0.000
 Translational            0.889              2.981             40.385
 Rotational               0.889              2.981             28.088
 Vibrational             90.381             28.817             22.598
 Vibration     1          0.598              1.968              4.152
 Vibration     2          0.640              1.833              2.088
 Vibration     3          0.645              1.817              1.993
 Vibration     4          0.660              1.771              1.765
 Vibration     5          0.668              1.747              1.666
 Vibration     6          0.680              1.709              1.529
 Vibration     7          0.704              1.641              1.325
 Vibration     8          0.728              1.571              1.158
 Vibration     9          0.732              1.560              1.134
 Vibration    10          0.737              1.547              1.106
 Vibration    11          0.787              1.417              0.877
 Vibration    12          0.813              1.351              0.782
 Vibration    13          0.892              1.168              0.572
 Vibration    14          0.920              1.109              0.516
 Vibration    15          0.924              1.100              0.507

 Optimization completed.
    -- Stationary point found.
 Normal termination of Gaussian 16 at Tue Feb  8 14:11:06 2022.
