 Gaussian 16, Revision A.03,
 Gaussian 16:  ES64L-G16RevA.03 25-Dec-2016

 --------------------------
 # MP2/aug-cc-pVDZ opt freq
 --------------------------

 ---------------
 Me F Ref Closed
 ---------------
 Symbolic Z-matrix:
 Charge =  0 Multiplicity = 1

 SCF Done:  E(RHF) =  -429.928004693     A.U. after   12 cycles
 E2 =    -0.1197893993D+01 EUMP2 =    -0.43112589868546D+03
 SCF Done:  E(RHF) =  -429.928402946     A.U. after   11 cycles
 E2 =    -0.1200252040D+01 EUMP2 =    -0.43112865498660D+03
 SCF Done:  E(RHF) =  -429.928409626     A.U. after   10 cycles
 E2 =    -0.1200561817D+01 EUMP2 =    -0.43112897144280D+03
 SCF Done:  E(RHF) =  -429.928202118     A.U. after   10 cycles
 E2 =    -0.1200887631D+01 EUMP2 =    -0.43112908974876D+03
 SCF Done:  E(RHF) =  -429.928145344     A.U. after   10 cycles
 E2 =    -0.1201014980D+01 EUMP2 =    -0.43112916032364D+03
 SCF Done:  E(RHF) =  -429.928291554     A.U. after    9 cycles
 E2 =    -0.1200900612D+01 EUMP2 =    -0.43112919216663D+03
 SCF Done:  E(RHF) =  -429.928456961     A.U. after    9 cycles
 E2 =    -0.1200748273D+01 EUMP2 =    -0.43112920523372D+03
 SCF Done:  E(RHF) =  -429.928486451     A.U. after    8 cycles
 E2 =    -0.1200719724D+01 EUMP2 =    -0.43112920617523D+03
 Optimization completed.
    -- Stationary point found.
 Normal termination of Gaussian 16 at Tue Feb  8 12:57:12 2022.

 ----------------------------------------------------------------------
 #N Geom=AllCheck Guess=TCheck SCRF=Check GenChk RMP2(FC)/Aug-CC-pVDZ F
 req
 ----------------------------------------------------------------------

 Structure from the checkpoint file:  "/gscratch/scrubbed/gds001/Gau-3271.chk"
 ---------------
 Me F Ref Closed
 ---------------
 Charge =  0 Multiplicity = 1

                         Standard orientation:
 ---------------------------------------------------------------------
 Center     Atomic      Atomic             Coordinates (Angstroms)
 Number     Number       Type             X           Y           Z
 ---------------------------------------------------------------------
      1          8           0        1.161931   -1.182282   -0.699902
      2          6           0        0.603622   -0.054119    0.000457
      3          1           0        1.395017   -0.898451   -1.596557
      4          6           0       -0.846956    0.092956   -0.466140
      5          6           0        1.372633    1.226824   -0.326195
      6          6           0        0.662125   -0.397556    1.484430
      7          1           0       -0.938250    0.219162   -1.557253
      8          9           0       -1.431392    1.195845    0.137760
      9          9           0       -1.597177   -1.001613   -0.106081
     10          1           0        0.180859   -1.367985    1.665572
     11          1           0        0.150403    0.375142    2.076590
     12          1           0        1.714244   -0.457236    1.798432
     13          1           0        1.291094    1.475886   -1.398788
     14          1           0        2.434722    1.077420   -0.081524
     15          1           0        0.985041    2.077609    0.252328
 ---------------------------------------------------------------------

 SCF Done:  E(RHF) =  -429.928486451     A.U. after    1 cycles
 E2 =    -0.1200719726D+01 EUMP2 =    -0.43112920617793D+03
 E2 =    -0.1200719726D+01 EUMP2 =    -0.43112920617793D+03

 The electronic state is 1-A.
 Alpha  occ. eigenvalues --  -26.32140 -26.31764 -20.58714 -11.41622 -11.31870
 Alpha  occ. eigenvalues --  -11.24842 -11.23212  -1.65359  -1.59537  -1.38211
 Alpha  occ. eigenvalues --   -1.08617  -0.96086  -0.95859  -0.81684  -0.76674
 Alpha  occ. eigenvalues --   -0.75243  -0.73777  -0.67971  -0.66159  -0.63652
 Alpha  occ. eigenvalues --   -0.62545  -0.61414  -0.57452  -0.55695  -0.54518
 Alpha  occ. eigenvalues --   -0.54062  -0.52539  -0.49026  -0.45948
 Alpha virt. eigenvalues --    0.02979   0.04303   0.04991   0.05158   0.06678
 Alpha virt. eigenvalues --    0.07034   0.07571   0.07899   0.10964   0.12378
 Alpha virt. eigenvalues --    0.12673   0.14051   0.14606   0.15171   0.15372

 Mulliken charges:
               1
     1  O   -0.710919
     2  C   -2.119533
     3  H    0.109444
     4  C    2.086042
     5  C    0.968341
     6  C    0.865616
     7  H   -0.157360
     8  F   -0.647990
     9  F   -0.629840
    10  H    0.036304
    11  H    0.095342
    12  H    0.028971
    13  H   -0.046911
    14  H    0.054425
    15  H    0.068068
 Sum of Mulliken charges =  -0.00000

 Dipole moment (field-independent basis, Debye):
    X=              2.0337    Y=              1.6403    Z=             -1.5171  Tot=              3.0213
 Quadrupole moment (field-independent basis, Debye-Ang):
   XX=            -44.9127   YY=            -46.6769   ZZ=            -36.2416
   XY=              1.9640   XZ=             -0.0118   YZ=             -0.8129

  Exact polarizability:  57.247   0.899  57.538  -0.627  -0.663  58.409
 Approx polarizability:  46.179  -0.268  48.288  -0.956   0.273  48.509

                      1                      2                      3
                      A                      A                      A
 Frequencies --     91.9727               212.1218               227.3603
 Red. masses --      5.0158                 1.2586                 3.5648
 Frc consts  --      0.0250                 0.0334                 0.1086
 IR Inten    --      0.7783                 0.3871                 9.4527

                      4                      5                      6
                      A                      A                      A
 Frequencies --    241.9481               276.7705               284.3301
 Red. masses --      1.4305                 1.6100                 1.1491
 Frc consts  --      0.0493                 0.0727                 0.0547
 IR Inten    --      2.2291                 2.2177                97.0103

                      7                      8                      9
                      A                      A                      A
 Frequencies --    345.7969               351.3701               425.7239
 Red. masses --      4.7342                 2.5557                 2.9219
 Frc consts  --      0.3335                 0.1859                 0.3120
 IR Inten    --      0.4604                 1.4578                12.5140

                     10                     11                     12
                      A                      A                      A
 Frequencies --    489.8345               517.8953               617.0952
 Red. masses --      3.8919                 5.4102                 4.9354
 Frc consts  --      0.5502                 0.8550                 1.1073
 IR Inten    --      1.4560                10.1977                 6.5394

                     13                     14                     15
                      A                      A                      A
 Frequencies --    797.1308               929.7514               948.5213
 Red. masses --      3.4579                 2.1565                 1.3892
 Frc consts  --      1.2945                 1.0983                 0.7364
 IR Inten    --     10.1161                14.0351                 1.1870

                     16                     17                     18
                      A                      A                      A
 Frequencies --    995.8652              1022.0415              1069.1531
 Red. masses --      1.6740                 1.5153                 7.4007
 Frc consts  --      0.9781                 0.9326                 4.9843
 IR Inten    --     22.4754                 4.9356               160.4486

                     19                     20                     21
                      A                      A                      A
 Frequencies --   1114.1438              1147.3026              1213.1594
 Red. masses --      3.9360                 1.7571                 2.7138
 Frc consts  --      2.8786                 1.3627                 2.3533
 IR Inten    --    126.6899                60.3980                31.1927

                     22                     23                     24
                      A                      A                      A
 Frequencies --   1273.0799              1354.9679              1357.9468
 Red. masses --      1.8180                 1.1744                 1.5202
 Frc consts  --      1.7361                 1.2703                 1.6516
 IR Inten    --     17.4775                15.3664                 8.1932

                     25                     26                     27
                      A                      A                      A
 Frequencies --   1386.1499              1397.3643              1427.9231
 Red. masses --      1.6180                 1.3747                 1.5286
 Frc consts  --      1.8316                 1.5816                 1.8364
 IR Inten    --     16.3874                16.4128                16.2640

                     28                     29                     30
                      A                      A                      A
 Frequencies --   1474.9511              1479.8800              1494.9909
 Red. masses --      1.0490                 1.0779                 1.0813
 Frc consts  --      1.3446                 1.3909                 1.4239
 IR Inten    --      0.9629                 1.5432                 4.6713

                     31                     32                     33
                      A                      A                      A
 Frequencies --   1507.1071              3054.4872              3080.5935
 Red. masses --      1.0973                 1.0393                 1.0351
 Frc consts  --      1.4685                 5.7131                 5.7877
 IR Inten    --     16.6275                15.0385                 9.9961

                     34                     35                     36
                      A                      A                      A
 Frequencies --   3120.6969              3147.3373              3177.1287
 Red. masses --      1.0878                 1.0971                 1.1028
 Frc consts  --      6.2418                 6.4029                 6.5589
 IR Inten    --     32.1688                21.1317                 1.4453

                     37                     38                     39
                      A                      A                      A
 Frequencies --   3181.3098              3189.9138              3792.0510
 Red. masses --      1.1023                 1.1024                 1.0665
 Frc consts  --      6.5728                 6.6094                 9.0358
 IR Inten    --     16.0356                 7.3752                23.7845

 - Thermochemistry -
 -------------------
 Temperature   298.150 Kelvin.  Pressure   1.00000 Atm.
 Atom     1 has atomic number  8 and mass  15.99491

 Molecular mass:   110.05432 amu.
 Principal axes and moments of inertia in atomic units:
                           1         2         3
     Eigenvalues --   554.61358 784.46147 939.43327
           X            0.99749   0.07016   0.00913
           Y           -0.06935   0.99516  -0.06965
           Z           -0.01397   0.06884   0.99753
 This molecule is an asymmetric top.
 Rotational symmetry number  1.
 Warning -- assumption of classical behavior for rotation
           may cause significant error
 Rotational temperatures (Kelvin)      0.15617     0.11041     0.09220
 Rotational constants (GHZ):           3.25405     2.30061     1.92110
 Zero-point vibrational energy     318309.3 (Joules/Mol)
                                   76.07776 (Kcal/Mol)
 Warning -- explicit consideration of  12 degrees of freedom as
           vibrations may cause significant error
 Vibrational temperatures:    132.33   305.20   327.12   348.11   398.21
          (Kelvin)            409.09   497.52   505.54   612.52   704.76
                              745.14   887.86  1146.89  1337.70  1364.71
                             1432.83  1470.49  1538.27  1603.00  1650.71
                             1745.47  1831.68  1949.50  1953.78  1994.36
                             2010.50  2054.46  2122.13  2129.22  2150.96
                             2168.39  4394.73  4432.29  4489.99  4528.32
                             4571.18  4577.20  4589.57  5455.92

 Zero-point correction=                           0.121238 (Hartree/Particle)
 Thermal correction to Energy=                    0.129279
 Thermal correction to Enthalpy=                  0.130223
 Thermal correction to Gibbs Free Energy=         0.089426
 Sum of electronic and zero-point Energies=           -431.007969
 Sum of electronic and thermal Energies=              -430.999927
 Sum of electronic and thermal Enthalpies=            -430.998983
 Sum of electronic and thermal Free Energies=         -431.039780

                     E (Thermal)             CV                S
                      KCal/Mol        Cal/Mol-Kelvin    Cal/Mol-Kelvin
 Total                   81.124             29.118             85.864
 Electronic               0.000              0.000              0.000
 Translational            0.889              2.981             40.004
 Rotational               0.889              2.981             27.505
 Vibrational             79.346             23.157             18.356
 Vibration     1          0.602              1.955              3.618
 Vibration     2          0.643              1.822              2.025
 Vibration     3          0.651              1.799              1.900
 Vibration     4          0.658              1.776              1.789
 Vibration     5          0.678              1.716              1.554
 Vibration     6          0.683              1.703              1.507
 Vibration     7          0.724              1.584              1.185
 Vibration     8          0.728              1.572              1.160
 Vibration     9          0.788              1.414              0.873
 Vibration    10          0.846              1.273              0.684
 Vibration    11          0.873              1.210              0.615
 Vibration    12          0.977              0.996              0.421

 Optimization completed.
    -- Stationary point found.
 Normal termination of Gaussian 16 at Tue Feb  8 13:09:32 2022.
