 Gaussian 16, Revision A.03,
 Gaussian 16:  ES64L-G16RevA.03 25-Dec-2016

 --------------------------
 # MP2/aug-cc-pVDZ opt freq
 --------------------------

 -------------
 Me F Ref Open
 -------------
 Symbolic Z-matrix:
 Charge =  0 Multiplicity = 1

 SCF Done:  E(RHF) =  -429.927027540     A.U. after   12 cycles
 E2 =    -0.1202676726D+01 EUMP2 =    -0.43112970426608D+03
 SCF Done:  E(RHF) =  -429.932787564     A.U. after   11 cycles
 E2 =    -0.1199903814D+01 EUMP2 =    -0.43113269137716D+03
 SCF Done:  E(RHF) =  -429.932767162     A.U. after   10 cycles
 E2 =    -0.1200193775D+01 EUMP2 =    -0.43113296093765D+03
 SCF Done:  E(RHF) =  -429.932374693     A.U. after   10 cycles
 E2 =    -0.1200623263D+01 EUMP2 =    -0.43113299795582D+03
 SCF Done:  E(RHF) =  -429.932208724     A.U. after   10 cycles
 E2 =    -0.1200800353D+01 EUMP2 =    -0.43113300907629D+03
 SCF Done:  E(RHF) =  -429.932313050     A.U. after    9 cycles
 E2 =    -0.1200705102D+01 EUMP2 =    -0.43113301815186D+03
 SCF Done:  E(RHF) =  -429.932369515     A.U. after    8 cycles
 E2 =    -0.1200650151D+01 EUMP2 =    -0.43113301966528D+03
 SCF Done:  E(RHF) =  -429.932384574     A.U. after    8 cycles
 E2 =    -0.1200635458D+01 EUMP2 =    -0.43113302003224D+03
 Optimization completed.
    -- Stationary point found.
 Normal termination of Gaussian 16 at Wed Feb  9 09:51:30 2022.

 ----------------------------------------------------------------------
 #N Geom=AllCheck Guess=TCheck SCRF=Check GenChk RMP2(FC)/Aug-CC-pVDZ F
 req
 ----------------------------------------------------------------------

 Structure from the checkpoint file:  "/gscratch/scrubbed/gds001/Gau-28720.chk"
 -------------
 Me F Ref Open
 -------------
 Charge =  0 Multiplicity = 1

                         Standard orientation:
 ---------------------------------------------------------------------
 Center     Atomic      Atomic             Coordinates (Angstroms)
 Number     Number       Type             X           Y           Z
 ---------------------------------------------------------------------
      1          8           0        1.120940   -1.211396   -0.685026
      2          6           0        0.606176   -0.051885   -0.005817
      3          1           0        0.620813   -1.979145   -0.367203
      4          6           0       -0.838406    0.119828   -0.470570
      5          6           0        1.441330    1.125950   -0.495916
      6          6           0        0.678574   -0.216705    1.512186
      7          1           0       -0.932616    0.220308   -1.561581
      8          9           0       -1.419516    1.221414    0.125779
      9          9           0       -1.586445   -0.984753   -0.086223
     10          1           0        0.088604   -1.085588    1.841421
     11          1           0        0.289812    0.678030    2.020711
     12          1           0        1.728234   -0.369056    1.802851
     13          1           0        1.379319    1.212176   -1.591636
     14          1           0        2.492677    0.957852   -0.220807
     15          1           0        1.093234    2.063522   -0.038854
 ---------------------------------------------------------------------

 SCF Done:  E(RHF) =  -429.932384574     A.U. after    1 cycles
 E2 =    -0.1200635460D+01 EUMP2 =    -0.43113302003410D+03
 E2 =    -0.1200635460D+01 EUMP2 =    -0.43113302003410D+03

 The electronic state is 1-A.
 Alpha  occ. eigenvalues --  -26.32564 -26.32471 -20.58526 -11.41764 -11.31768
 Alpha  occ. eigenvalues --  -11.23987 -11.23890  -1.65779  -1.60060  -1.38116
 Alpha  occ. eigenvalues --   -1.08641  -0.96467  -0.95513  -0.81629  -0.77061
 Alpha  occ. eigenvalues --   -0.75380  -0.74947  -0.67277  -0.66100  -0.64429
 Alpha  occ. eigenvalues --   -0.63359  -0.61032  -0.57672  -0.55291  -0.54693
 Alpha  occ. eigenvalues --   -0.54545  -0.52243  -0.49260  -0.45881
 Alpha virt. eigenvalues --    0.03606   0.04443   0.04726   0.05478   0.06637
 Alpha virt. eigenvalues --    0.07006   0.07655   0.07831   0.11055   0.12235
 Alpha virt. eigenvalues --    0.12841   0.14128   0.15067   0.15393   0.16007

 Mulliken charges:
               1
     1  O   -0.715417
     2  C   -2.148465
     3  H    0.118433
     4  C    2.029377
     5  C    0.830081
     6  C    1.003164
     7  H   -0.124032
     8  F   -0.639634
     9  F   -0.652017
    10  H   -0.025930
    11  H    0.076300
    12  H    0.052799
    13  H    0.029710
    14  H    0.047906
    15  H    0.117724
 Sum of Mulliken charges =  -0.00000

 Dipole moment (field-independent basis, Debye):
    X=              0.9990    Y=              0.2014    Z=              0.1433  Tot=              1.0291
 Quadrupole moment (field-independent basis, Debye-Ang):
   XX=            -46.8999   YY=            -41.4419   ZZ=            -40.5360
   XY=              2.1339   XZ=              3.1539   YZ=             -1.9949

  Exact polarizability:  57.096   1.264  58.289  -0.221  -0.697  57.333
 Approx polarizability:  46.390   0.328  49.258  -0.757   0.301  46.985

                      1                      2                      3
                      A                      A                      A
 Frequencies --     96.7369               206.4578               216.7543
 Red. masses --      4.7604                 1.0646                 3.3649
 Frc consts  --      0.0262                 0.0267                 0.0931
 IR Inten    --      2.9367                 1.2233                 0.7191

                      4                      5                      6
                      A                      A                      A
 Frequencies --    247.3276               268.6801               338.8890
 Red. masses --      1.6141                 1.8748                 3.1133
 Frc consts  --      0.0582                 0.0797                 0.2107
 IR Inten    --      1.7115                 5.7178                20.0257

                      7                      8                      9
                      A                      A                      A
 Frequencies --    352.4473               383.2046               429.1580
 Red. masses --      2.5089                 1.2498                 3.6208
 Frc consts  --      0.1836                 0.1081                 0.3929
 IR Inten    --      0.5588                85.1355                19.7727

                     10                     11                     12
                      A                      A                      A
 Frequencies --    488.8696               518.1703               615.7285
 Red. masses --      3.8551                 4.9284                 4.9006
 Frc consts  --      0.5428                 0.7797                 1.0947
 IR Inten    --      3.4752                10.3694                 8.6469

                     13                     14                     15
                      A                      A                      A
 Frequencies --    796.3767               932.6341               949.3060
 Red. masses --      3.4402                 2.2011                 1.3749
 Frc consts  --      1.2855                 1.1280                 0.7300
 IR Inten    --      7.5225                11.5398                 1.8709

                     16                     17                     18
                      A                      A                      A
 Frequencies --    996.9014              1015.3758              1069.9630
 Red. masses --      1.7821                 1.4821                 5.8859
 Frc consts  --      1.0435                 0.9003                 3.9701
 IR Inten    --     23.1735                12.8212               187.3173

                     19                     20                     21
                      A                      A                      A
 Frequencies --   1097.6228              1152.1895              1209.1950
 Red. masses --      4.1130                 1.7250                 2.6721
 Frc consts  --      2.9195                 1.3493                 2.3019
 IR Inten    --     90.4287                45.1255                54.2351

                     22                     23                     24
                      A                      A                      A
 Frequencies --   1302.6056              1343.0312              1359.4147
 Red. masses --      2.0266                 1.4692                 1.1973
 Frc consts  --      2.0260                 1.5613                 1.3037
 IR Inten    --      3.7540                32.1992                 4.3690

                     25                     26                     27
                      A                      A                      A
 Frequencies --   1381.9619              1409.1643              1417.6180
 Red. masses --      1.4290                 1.3359                 1.7154
 Frc consts  --      1.6079                 1.5629                 2.0311
 IR Inten    --     11.6175                17.1707                18.2849

                     28                     29                     30
                      A                      A                      A
 Frequencies --   1474.0445              1480.1391              1494.8459
 Red. masses --      1.0510                 1.0668                 1.0768
 Frc consts  --      1.3454                 1.3770                 1.4177
 IR Inten    --      1.5343                 1.6817                 4.3364

                     31                     32                     33
                      A                      A                      A
 Frequencies --   1508.5854              3070.6117              3073.0659
 Red. masses --      1.1151                 1.0349                 1.0356
 Frc consts  --      1.4952                 5.7493                 5.7623
 IR Inten    --     14.4200                13.8652                 6.4683

                     34                     35                     36
                      A                      A                      A
 Frequencies --   3153.5861              3167.1273              3169.4826
 Red. masses --      1.0889                 1.1021                 1.1016
 Frc consts  --      6.3806                 6.5135                 6.5200
 IR Inten    --     18.2681                12.2041                19.3724

                     37                     38                     39
                      A                      A                      A
 Frequencies --   3175.4964              3182.2445              3785.0001
 Red. masses --      1.1028                 1.1025                 1.0661
 Frc consts  --      6.5519                 6.5778                 8.9983
 IR Inten    --      4.3402                13.2816                35.0965

 - Thermochemistry -
 -------------------
 Temperature   298.150 Kelvin.  Pressure   1.00000 Atm.
 Atom     1 has atomic number  8 and mass  15.99491

 Molecular mass:   110.05432 amu.
 Principal axes and moments of inertia in atomic units:
                           1         2         3
     Eigenvalues --   554.42359 783.69395 933.39226
           X            0.99701   0.07463   0.02011
           Y           -0.07290   0.99440  -0.07652
           Z           -0.02571   0.07483   0.99687
 This molecule is an asymmetric top.
 Rotational symmetry number  1.
 Warning -- assumption of classical behavior for rotation
           may cause significant error
 Rotational temperatures (Kelvin)      0.15622     0.11052     0.09279
 Rotational constants (GHZ):           3.25517     2.30286     1.93353
 Zero-point vibrational energy     318984.3 (Joules/Mol)
                                   76.23908 (Kcal/Mol)
 Warning -- explicit consideration of  12 degrees of freedom as
           vibrations may cause significant error
 Vibrational temperatures:    139.18   297.05   311.86   355.85   386.57
          (Kelvin)            487.59   507.09   551.35   617.46   703.37
                              745.53   885.90  1145.81  1341.85  1365.84
                             1434.32  1460.90  1539.44  1579.23  1657.74
                             1739.76  1874.16  1932.32  1955.89  1988.33
                             2027.47  2039.64  2120.82  2129.59  2150.75
                             2170.52  4417.93  4421.46  4537.31  4556.79
                             4560.18  4568.83  4578.54  5445.77

 Zero-point correction=                           0.121495 (Hartree/Particle)
 Thermal correction to Energy=                    0.129446
 Thermal correction to Enthalpy=                  0.130390
 Thermal correction to Gibbs Free Energy=         0.089791
 Sum of electronic and zero-point Energies=           -431.011525
 Sum of electronic and thermal Energies=              -431.003574
 Sum of electronic and thermal Enthalpies=            -431.002630
 Sum of electronic and thermal Free Energies=         -431.043229

                     E (Thermal)             CV                S
                      KCal/Mol        Cal/Mol-Kelvin    Cal/Mol-Kelvin
 Total                   81.228             28.961             85.447
 Electronic               0.000              0.000              0.000
 Translational            0.889              2.981             40.004
 Rotational               0.889              2.981             27.497
 Vibrational             79.451             23.000             17.946
 Vibration     1          0.603              1.952              3.519
 Vibration     2          0.641              1.831              2.075
 Vibration     3          0.646              1.816              1.986
 Vibration     4          0.661              1.767              1.750
 Vibration     5          0.673              1.731              1.605
 Vibration     6          0.719              1.598              1.217
 Vibration     7          0.729              1.570              1.155
 Vibration     8          0.752              1.506              1.026
 Vibration     9          0.791              1.407              0.861
 Vibration    10          0.845              1.275              0.687
 Vibration    11          0.873              1.210              0.614
 Vibration    12          0.975              0.999              0.423

 Optimization completed.
    -- Stationary point found.
 Normal termination of Gaussian 16 at Wed Feb  9 10:04:56 2022.
