 Gaussian 16, Revision A.03,
 Gaussian 16:  ES64L-G16RevA.03 25-Dec-2016

 --------------------------
 # MP2/aug-cc-pVDZ opt freq
 --------------------------

 ----------
 F F Closed
 ----------
 Symbolic Z-matrix:
 Charge =  0 Multiplicity = 1

 SCF Done:  E(RHF) =  -604.637379816     A.U. after   12 cycles
 E2 =    -0.1464948751D+01 EUMP2 =    -0.60610232856645D+03
 SCF Done:  E(RHF) =  -604.648465682     A.U. after   11 cycles
 E2 =    -0.1465684437D+01 EUMP2 =    -0.60611415011821D+03
 SCF Done:  E(RHF) =  -604.651317020     A.U. after   11 cycles
 E2 =    -0.1464790284D+01 EUMP2 =    -0.60611610730453D+03
 SCF Done:  E(RHF) =  -604.651796184     A.U. after   11 cycles
 E2 =    -0.1464596270D+01 EUMP2 =    -0.60611639245459D+03
 SCF Done:  E(RHF) =  -604.651725433     A.U. after   10 cycles
 E2 =    -0.1464802137D+01 EUMP2 =    -0.60611652757009D+03
 SCF Done:  E(RHF) =  -604.651672539     A.U. after    9 cycles
 E2 =    -0.1464934717D+01 EUMP2 =    -0.60611660725554D+03
 SCF Done:  E(RHF) =  -604.651612322     A.U. after    9 cycles
 E2 =    -0.1465010030D+01 EUMP2 =    -0.60611662235278D+03
 SCF Done:  E(RHF) =  -604.651605121     A.U. after    8 cycles
 E2 =    -0.1465020007D+01 EUMP2 =    -0.60611662512825D+03
 SCF Done:  E(RHF) =  -604.651608596     A.U. after    7 cycles
 E2 =    -0.1465016997D+01 EUMP2 =    -0.60611662559384D+03
 Optimization completed.
    -- Stationary point found.
 Normal termination of Gaussian 16 at Tue Feb  8 12:56:36 2022.

 ----------------------------------------------------------------------
 #N Geom=AllCheck Guess=TCheck SCRF=Check GenChk RMP2(FC)/Aug-CC-pVDZ F
 req
 ----------------------------------------------------------------------

 Structure from the checkpoint file:  "/gscratch/scrubbed/gds001/Gau-23612.chk"
 ----------
 F F Closed
 ----------
 Charge =  0 Multiplicity = 1

                         Standard orientation:
 ---------------------------------------------------------------------
 Center     Atomic      Atomic             Coordinates (Angstroms)
 Number     Number       Type             X           Y           Z
 ---------------------------------------------------------------------
      1          8           0       -1.274574    0.896587    0.951558
      2          6           0       -0.787492    0.026774    0.028071
      3          1           0       -0.683534    1.669881    0.950010
      4          6           0        0.754957   -0.037305    0.013221
      5          9           0       -1.167739    0.390208   -1.256662
      6          9           0       -1.314738   -1.191805    0.269299
      7          7           0        1.280646    1.251625   -0.258424
      8          9           0        1.143038   -1.011217   -0.885762
      9          9           0        1.197714   -0.443334    1.241367
     10          1           0        1.100926    1.501913   -1.230953
     11          1           0        2.285412    1.262658   -0.084474
 ---------------------------------------------------------------------

 SCF Done:  E(RHF) =  -604.651608596     A.U. after    1 cycles
 E2 =    -0.1465016996D+01 EUMP2 =    -0.60611662559232D+03
 E2 =    -0.1465016996D+01 EUMP2 =    -0.60611662559232D+03

 The electronic state is 1-A.
 Alpha  occ. eigenvalues --  -26.35660 -26.35082 -26.34692 -26.34603 -20.63473
 Alpha  occ. eigenvalues --  -15.62460 -11.50647 -11.48909  -1.70671  -1.68482
 Alpha  occ. eigenvalues --   -1.63146  -1.62675  -1.44667  -1.26437  -1.03261
 Alpha  occ. eigenvalues --   -0.91578  -0.85178  -0.81610  -0.80860  -0.79093
 Alpha  occ. eigenvalues --   -0.77082  -0.71517  -0.70581  -0.69257  -0.68460
 Alpha  occ. eigenvalues --   -0.66989  -0.66524  -0.65271  -0.65089  -0.64053
 Alpha  occ. eigenvalues --   -0.57364  -0.53550  -0.49698
 Alpha virt. eigenvalues --    0.02510   0.04946   0.05295   0.08879   0.09665
 Alpha virt. eigenvalues --    0.11418   0.11926   0.12320   0.13198   0.15194
 Alpha virt. eigenvalues --    0.16108   0.17582   0.19012   0.19950   0.21679

 Mulliken charges:
               1
     1  O   -0.748641
     2  C    2.024622
     3  H    0.236592
     4  C    1.667726
     5  F   -0.696890
     6  F   -0.639801
     7  N   -0.622065
     8  F   -0.689366
     9  F   -0.687358
    10  H    0.118187
    11  H    0.036996
 Sum of Mulliken charges =  -0.00000

 Dipole moment (field-independent basis, Debye):
    X=              2.6340    Y=              3.1689    Z=             -0.6928  Tot=              4.1785
 Quadrupole moment (field-independent basis, Debye-Ang):
   XX=            -43.1306   YY=            -41.9052   ZZ=            -45.4843
   XY=              3.4223   XZ=             -1.3770   YZ=             -0.8928

  Exact polarizability:  43.783   1.111  44.231  -0.912   0.529  42.451
 Approx polarizability:  33.625   0.678  35.839   0.042   0.166  35.824

                      1                      2                      3
                      A                      A                      A
 Frequencies --     87.7548               217.0717               226.7134
 Red. masses --      9.5752                 7.3555                 7.9748
 Frc consts  --      0.0434                 0.2042                 0.2415
 IR Inten    --      2.0297                 2.0814                 4.5435

                      4                      5                      6
                      A                      A                      A
 Frequencies --    289.4500               344.9073               349.8065
 Red. masses --      1.2617                 3.3336                 8.7043
 Frc consts  --      0.0623                 0.2337                 0.6275
 IR Inten    --      4.8060                27.1403                 1.9358

                      7                      8                      9
                      A                      A                      A
 Frequencies --    379.8155               478.6802               482.4823
 Red. masses --      4.3919                 4.3301                 1.7814
 Frc consts  --      0.3733                 0.5846                 0.2443
 IR Inten    --      4.5883                13.4210                83.9302

                     10                     11                     12
                      A                      A                      A
 Frequencies --    506.1956               591.1461               602.3562
 Red. masses --      4.9695                 7.1124                 9.1472
 Frc consts  --      0.7502                 1.4644                 1.9555
 IR Inten    --     14.7710                11.1367                13.7884

                     13                     14                     15
                      A                      A                      A
 Frequencies --    654.9770               772.8485               850.7381
 Red. masses --      4.9860                 8.6433                 1.6726
 Frc consts  --      1.2603                 3.0417                 0.7132
 IR Inten    --     44.4995                11.4439                90.9886

                     16                     17                     18
                      A                      A                      A
 Frequencies --   1002.1955              1068.6575              1104.6278
 Red. masses --      2.9271                 5.9958                 3.9688
 Frc consts  --      1.7321                 4.0344                 2.8533
 IR Inten    --    120.3496               101.7164               178.4963

                     19                     20                     21
                      A                      A                      A
 Frequencies --   1163.7735              1258.8927              1295.6328
 Red. masses --      2.9966                 5.2762                 4.3491
 Frc consts  --      2.3912                 4.9266                 4.3014
 IR Inten    --    409.1680               189.7171               133.0395

                     22                     23                     24
                      A                      A                      A
 Frequencies --   1373.3726              1479.1063              1623.4610
 Red. masses --      2.0247                 3.8608                 1.1338
 Frc consts  --      2.2501                 4.9765                 1.7607
 IR Inten    --    113.5665                38.0432                63.5605

                     25                     26                     27
                      A                      A                      A
 Frequencies --   3524.3982              3631.7781              3745.7568
 Red. masses --      1.0495                 1.0943                 1.0651
 Frc consts  --      7.6809                 8.5043                 8.8045
 IR Inten    --     25.0391                38.9834                97.1627

 - Thermochemistry -
 -------------------
 Temperature   298.150 Kelvin.  Pressure   1.00000 Atm.
 Atom     1 has atomic number  8 and mass  15.99491

 Molecular mass:   133.01508 amu.
 Principal axes and moments of inertia in atomic units:
                           1         2         3
     Eigenvalues --   668.85720 980.51264 983.23036
           X            0.99799   0.04338  -0.04625
           Y           -0.04677   0.99610  -0.07479
           Z            0.04282   0.07680   0.99613
 This molecule is an asymmetric top.
 Rotational symmetry number  1.
 Warning -- assumption of classical behavior for rotation
           may cause significant error
 Rotational temperatures (Kelvin)      0.12950     0.08834     0.08809
 Rotational constants (GHZ):           2.69825     1.84061     1.83552
 Zero-point vibrational energy     174096.1 (Joules/Mol)
                                   41.60997 (Kcal/Mol)
 Warning -- explicit consideration of  12 degrees of freedom as
           vibrations may cause significant error
 Vibrational temperatures:    126.26   312.32   326.19   416.45   496.24
          (Kelvin)            503.29   546.47   688.71   694.18   728.30
                              850.53   866.66   942.37  1111.96  1224.02
                             1441.94  1537.56  1589.31  1674.41  1811.27
                             1864.13  1975.98  2128.10  2335.80  5070.82
                             5225.32  5389.31

 Zero-point correction=                           0.066310 (Hartree/Particle)
 Thermal correction to Energy=                    0.073901
 Thermal correction to Enthalpy=                  0.074845
 Thermal correction to Gibbs Free Energy=         0.034409
 Sum of electronic and zero-point Energies=           -606.050316
 Sum of electronic and thermal Energies=              -606.042725
 Sum of electronic and thermal Enthalpies=            -606.041780
 Sum of electronic and thermal Free Energies=         -606.082217

                     E (Thermal)             CV                S
                      KCal/Mol        Cal/Mol-Kelvin    Cal/Mol-Kelvin
 Total                   46.374             27.741             85.105
 Electronic               0.000              0.000              0.000
 Translational            0.889              2.981             40.568
 Rotational               0.889              2.981             27.958
 Vibrational             44.596             21.779             16.579
 Vibration     1          0.601              1.958              3.710
 Vibration     2          0.646              1.815              1.983
 Vibration     3          0.650              1.800              1.905
 Vibration     4          0.686              1.693              1.477
 Vibration     5          0.723              1.586              1.189
 Vibration     6          0.727              1.576              1.167
 Vibration     7          0.750              1.513              1.040
 Vibration     8          0.835              1.297              0.714
 Vibration     9          0.839              1.289              0.703
 Vibration    10          0.861              1.236              0.643
 Vibration    11          0.949              1.051              0.465
 Vibration    12          0.961              1.027              0.446

 Optimization completed.
    -- Stationary point found.
 Normal termination of Gaussian 16 at Tue Feb  8 13:06:00 2022.
