 Gaussian 16, Revision A.03,
 Gaussian 16:  ES64L-G16RevA.03 25-Dec-2016

 --------------------------
 # MP2/aug-cc-pVDZ opt freq
 --------------------------

 --------
 F F Open
 --------
 Symbolic Z-matrix:
 Charge =  0 Multiplicity = 1

 SCF Done:  E(RHF) =  -604.632931569     A.U. after   12 cycles
 E2 =    -0.1462897622D+01 EUMP2 =    -0.60609582919082D+03
 SCF Done:  E(RHF) =  -604.646544481     A.U. after   11 cycles
 E2 =    -0.1465294141D+01 EUMP2 =    -0.60611183862171D+03
 SCF Done:  E(RHF) =  -604.649483503     A.U. after   10 cycles
 E2 =    -0.1464503364D+01 EUMP2 =    -0.60611398686704D+03
 SCF Done:  E(RHF) =  -604.650063853     A.U. after   10 cycles
 E2 =    -0.1464251648D+01 EUMP2 =    -0.60611431550082D+03
 SCF Done:  E(RHF) =  -604.650006540     A.U. after    9 cycles
 E2 =    -0.1464369769D+01 EUMP2 =    -0.60611437630844D+03
 SCF Done:  E(RHF) =  -604.649941046     A.U. after    9 cycles
 E2 =    -0.1464455070D+01 EUMP2 =    -0.60611439611650D+03
 SCF Done:  E(RHF) =  -604.649925307     A.U. after    8 cycles
 E2 =    -0.1464476498D+01 EUMP2 =    -0.60611440180534D+03
 SCF Done:  E(RHF) =  -604.649927948     A.U. after    8 cycles
 E2 =    -0.1464477396D+01 EUMP2 =    -0.60611440534348D+03
 SCF Done:  E(RHF) =  -604.649935865     A.U. after    8 cycles
 E2 =    -0.1464470820D+01 EUMP2 =    -0.60611440668485D+03
 SCF Done:  E(RHF) =  -604.649944922     A.U. after    7 cycles
 E2 =    -0.1464462041D+01 EUMP2 =    -0.60611440696220D+03
 Optimization completed.
    -- Stationary point found.
 Normal termination of Gaussian 16 at Tue Feb  8 12:57:20 2022.

 ----------------------------------------------------------------------
 #N Geom=AllCheck Guess=TCheck SCRF=Check GenChk RMP2(FC)/Aug-CC-pVDZ F
 req
 ----------------------------------------------------------------------

 Structure from the checkpoint file:  "/gscratch/scrubbed/gds001/Gau-23162.chk"
 --------
 F F Open
 --------
 Charge =  0 Multiplicity = 1

                         Standard orientation:
 ---------------------------------------------------------------------
 Center     Atomic      Atomic             Coordinates (Angstroms)
 Number     Number       Type             X           Y           Z
 ---------------------------------------------------------------------
      1          8           0       -1.223827    0.562132    1.190775
      2          6           0       -0.766989    0.035978    0.028899
      3          1           0       -2.188261    0.449566    1.208348
      4          6           0        0.775603   -0.007696    0.032870
      5          9           0       -1.163278    0.791108   -1.062476
      6          9           0       -1.269222   -1.217483   -0.187186
      7          7           0        1.331673    1.279842    0.117678
      8          9           0        1.149465   -0.715991   -1.106452
      9          9           0        1.197726   -0.763448    1.090592
     10          1           0        1.024049    1.855210   -0.664771
     11          1           0        2.349217    1.221899    0.125564
 ---------------------------------------------------------------------

 SCF Done:  E(RHF) =  -604.649944922     A.U. after    1 cycles
 E2 =    -0.1464462059D+01 EUMP2 =    -0.60611440698100D+03
 E2 =    -0.1464462059D+01 EUMP2 =    -0.60611440698100D+03

 The electronic state is 1-A.
 Alpha  occ. eigenvalues --  -26.35247 -26.35212 -26.34451 -26.33281 -20.64160
 Alpha  occ. eigenvalues --  -15.60505 -11.50896 -11.48061  -1.70423  -1.67600
 Alpha  occ. eigenvalues --   -1.63084  -1.61453  -1.45279  -1.25156  -1.03466
 Alpha  occ. eigenvalues --   -0.90284  -0.84086  -0.82156  -0.80853  -0.77560
 Alpha  occ. eigenvalues --   -0.76116  -0.71826  -0.70916  -0.69481  -0.68367
 Alpha  occ. eigenvalues --   -0.67488  -0.65561  -0.64331  -0.63802  -0.61614
 Alpha  occ. eigenvalues --   -0.56757  -0.55706  -0.47472
 Alpha virt. eigenvalues --    0.03196   0.03870   0.05922   0.09368   0.09765
 Alpha virt. eigenvalues --    0.11140   0.11692   0.13274   0.14009   0.15048
 Alpha virt. eigenvalues --    0.16550   0.17482   0.19928   0.20502   0.20827

 Mulliken charges:
               1
     1  O   -0.650004
     2  C    1.867141
     3  H    0.138935
     4  C    1.758909
     5  F   -0.679491
     6  F   -0.654672
     7  N   -0.495346
     8  F   -0.703081
     9  F   -0.685928
    10  H    0.078430
    11  H    0.025106
 Sum of Mulliken charges =  -0.00000

 Dipole moment (field-independent basis, Debye):
    X=             -0.3772    Y=              2.1049    Z=              0.0312  Tot=              2.1387
 Quadrupole moment (field-independent basis, Debye-Ang):
   XX=            -34.6452   YY=            -44.7952   ZZ=            -47.1122
   XY=              2.7950   XZ=             -4.2253   YZ=             -2.5284

  Exact polarizability:  45.136   1.186  43.391  -0.946   0.413  42.508
 Approx polarizability:  34.572   0.153  35.039   0.116  -0.163  35.465

                      1                      2                      3
                      A                      A                      A
 Frequencies --     74.6019               217.3341               229.5701
 Red. masses --     11.2329                 7.3772                 2.6684
 Frc consts  --      0.0368                 0.2053                 0.0829
 IR Inten    --      0.9744                 4.5689                18.4687

                      4                      5                      6
                      A                      A                      A
 Frequencies --    248.8193               273.2535               350.3490
 Red. masses --      1.6324                 1.1932                 8.1915
 Frc consts  --      0.0595                 0.0525                 0.5924
 IR Inten    --     55.9197                63.3960                 2.4707

                      7                      8                      9
                      A                      A                      A
 Frequencies --    371.6672               381.4026               486.3241
 Red. masses --      5.1401                 5.8876                 4.3976
 Frc consts  --      0.4183                 0.5046                 0.6128
 IR Inten    --     15.3277                 1.7766                26.9682

                     10                     11                     12
                      A                      A                      A
 Frequencies --    515.6109               586.0527               597.9086
 Red. masses --     10.6913                 9.6367                10.5522
 Frc consts  --      1.6746                 1.9501                 2.2226
 IR Inten    --     18.7691                10.3612                 2.1721

                     13                     14                     15
                      A                      A                      A
 Frequencies --    640.3886               761.6295               795.1053
 Red. masses --      4.3118                 4.4259                 1.9702
 Frc consts  --      1.0418                 1.5127                 0.7339
 IR Inten    --     52.8961                70.1137                80.0552

                     16                     17                     18
                      A                      A                      A
 Frequencies --    976.3362              1046.0525              1098.4867
 Red. masses --      3.9322                 3.4038                11.6183
 Frc consts  --      2.2084                 2.1944                 8.2601
 IR Inten    --    129.3050               172.3340               273.1651

                     19                     20                     21
                      A                      A                      A
 Frequencies --   1124.0950              1257.9370              1308.5124
 Red. masses --      2.5455                 9.1494                 4.6871
 Frc consts  --      1.8951                 8.5302                 4.7284
 IR Inten    --    108.4978               313.9075               155.3742

                     22                     23                     24
                      A                      A                      A
 Frequencies --   1329.0363              1523.6932              1630.9694
 Red. masses --      1.7356                 3.7288                 1.1365
 Frc consts  --      1.8062                 5.1005                 1.7811
 IR Inten    --     86.0621                 1.2111                65.3351

                     25                     26                     27
                      A                      A                      A
 Frequencies --   3535.6087              3645.1761              3783.3359
 Red. masses --      1.0494                 1.0946                 1.0653
 Frc consts  --      7.7288                 8.5690                 8.9839
 IR Inten    --     22.2441                35.5837                94.3583

 - Thermochemistry -
 -------------------
 Temperature   298.150 Kelvin.  Pressure   1.00000 Atm.
 Atom     1 has atomic number  8 and mass  15.99491

 Molecular mass:   133.01508 amu.
 Principal axes and moments of inertia in atomic units:
                           1         2         3
     Eigenvalues --   664.59389 986.34815 989.98577
           X            0.99728   0.05242  -0.05183
           Y           -0.05461   0.99763  -0.04195
           Z            0.04951   0.04467   0.99777
 This molecule is an asymmetric top.
 Rotational symmetry number  1.
 Warning -- assumption of classical behavior for rotation
           may cause significant error
 Rotational temperatures (Kelvin)      0.13033     0.08781     0.08749
 Rotational constants (GHZ):           2.71555     1.82972     1.82300
 Zero-point vibrational energy     172198.0 (Joules/Mol)
                                   41.15631 (Kcal/Mol)
 Warning -- explicit consideration of  12 degrees of freedom as
           vibrations may cause significant error
 Vibrational temperatures:    107.34   312.70   330.30   358.00   393.15
          (Kelvin)            504.07   534.75   548.75   699.71   741.85
                              843.20   860.26   921.38  1095.82  1143.98
                             1404.73  1505.04  1580.48  1617.32  1809.89
                             1882.66  1912.19  2192.25  2346.60  5086.95
                             5244.60  5443.38

 Zero-point correction=                           0.065587 (Hartree/Particle)
 Thermal correction to Energy=                    0.073469
 Thermal correction to Enthalpy=                  0.074413
 Thermal correction to Gibbs Free Energy=         0.033320
 Sum of electronic and zero-point Energies=           -606.048820
 Sum of electronic and thermal Energies=              -606.040938
 Sum of electronic and thermal Enthalpies=            -606.039994
 Sum of electronic and thermal Free Energies=         -606.081087

                     E (Thermal)             CV                S
                      KCal/Mol        Cal/Mol-Kelvin    Cal/Mol-Kelvin
 Total                   46.102             28.395             86.488
 Electronic               0.000              0.000              0.000
 Translational            0.889              2.981             40.568
 Rotational               0.889              2.981             27.964
 Vibrational             44.325             22.433             17.956
 Vibration     1          0.599              1.966              4.028
 Vibration     2          0.646              1.815              1.981
 Vibration     3          0.652              1.796              1.882
 Vibration     4          0.662              1.765              1.739
 Vibration     5          0.676              1.723              1.576
 Vibration     6          0.727              1.575              1.165
 Vibration     7          0.743              1.530              1.073
 Vibration     8          0.751              1.510              1.034
 Vibration     9          0.842              1.280              0.693
 Vibration    10          0.871              1.215              0.620
 Vibration    11          0.943              1.062              0.474
 Vibration    12          0.956              1.036              0.453

                           ! Non-Optimized Parameters !
 Normal termination of Gaussian 16 at Tue Feb  8 13:07:02 2022.
