 Gaussian 16, Revision A.03,
 Gaussian 16:  ES64L-G16RevA.03 25-Dec-2016

 --------------------------
 # MP2/aug-cc-pVDZ opt freq
 --------------------------

 --------------
 F F Ref Closed
 --------------
 Symbolic Z-matrix:
 Charge =  0 Multiplicity = 1

 SCF Done:  E(RHF) =  -549.580836907     A.U. after   12 cycles
 E2 =    -0.1292104929D+01 EUMP2 =    -0.55087294183593D+03
 SCF Done:  E(RHF) =  -549.591248476     A.U. after   11 cycles
 E2 =    -0.1285192771D+01 EUMP2 =    -0.55087644124668D+03
 SCF Done:  E(RHF) =  -549.592214479     A.U. after    9 cycles
 E2 =    -0.1284479571D+01 EUMP2 =    -0.55087669404955D+03
 SCF Done:  E(RHF) =  -549.592132381     A.U. after    9 cycles
 E2 =    -0.1284603156D+01 EUMP2 =    -0.55087673553641D+03
 SCF Done:  E(RHF) =  -549.591987960     A.U. after    9 cycles
 E2 =    -0.1284773119D+01 EUMP2 =    -0.55087676107866D+03
 SCF Done:  E(RHF) =  -549.591865524     A.U. after    9 cycles
 E2 =    -0.1284911239D+01 EUMP2 =    -0.55087677676362D+03
 SCF Done:  E(RHF) =  -549.591786420     A.U. after   10 cycles
 E2 =    -0.1285032888D+01 EUMP2 =    -0.55087681930789D+03
 SCF Done:  E(RHF) =  -549.591732744     A.U. after   11 cycles
 E2 =    -0.1285382822D+01 EUMP2 =    -0.55087711556589D+03
 SCF Done:  E(RHF) =  -549.593291998     A.U. after   12 cycles
 E2 =    -0.1285701744D+01 EUMP2 =    -0.55087899374170D+03
 SCF Done:  E(RHF) =  -549.595323358     A.U. after   12 cycles
 E2 =    -0.1285682118D+01 EUMP2 =    -0.55088100547623D+03
 SCF Done:  E(RHF) =  -549.596220415     A.U. after   10 cycles
 E2 =    -0.1285157443D+01 EUMP2 =    -0.55088137785854D+03
 SCF Done:  E(RHF) =  -549.596506232     A.U. after   10 cycles
 E2 =    -0.1284951560D+01 EUMP2 =    -0.55088145779248D+03
 SCF Done:  E(RHF) =  -549.596697643     A.U. after    8 cycles
 E2 =    -0.1284784708D+01 EUMP2 =    -0.55088148235027D+03
 SCF Done:  E(RHF) =  -549.596864005     A.U. after    9 cycles
 E2 =    -0.1284636333D+01 EUMP2 =    -0.55088150033770D+03
 SCF Done:  E(RHF) =  -549.596963168     A.U. after    8 cycles
 E2 =    -0.1284547409D+01 EUMP2 =    -0.55088151057710D+03
 SCF Done:  E(RHF) =  -549.597007846     A.U. after    8 cycles
 E2 =    -0.1284507373D+01 EUMP2 =    -0.55088151521892D+03
 SCF Done:  E(RHF) =  -549.597010475     A.U. after    7 cycles
 E2 =    -0.1284505144D+01 EUMP2 =    -0.55088151561874D+03
 Optimization completed.
    -- Stationary point found.
 Normal termination of Gaussian 16 at Tue Feb  8 12:57:10 2022.

 ----------------------------------------------------------------------
 #N Geom=AllCheck Guess=TCheck SCRF=Check GenChk RMP2(FC)/Aug-CC-pVDZ F
 req
 ----------------------------------------------------------------------

 Structure from the checkpoint file:  "/gscratch/scrubbed/gds001/Gau-3973.chk"
 --------------
 F F Ref Closed
 --------------
 Charge =  0 Multiplicity = 1

                         Standard orientation:
 ---------------------------------------------------------------------
 Center     Atomic      Atomic             Coordinates (Angstroms)
 Number     Number       Type             X           Y           Z
 ---------------------------------------------------------------------
      1          8           0       -1.232904    1.113186   -0.512814
      2          6           0       -0.609288    0.010967   -0.018374
      3          1           0       -2.150710    1.109935   -0.196029
      4          6           0        0.859702    0.035710   -0.455265
      5          9           0       -1.182502   -1.148055   -0.493836
      6          9           0       -0.700675   -0.058146    1.345276
      7          1           0        0.954430    0.064209   -1.549358
      8          9           0        1.480258   -1.080623    0.029179
      9          9           0        1.464810    1.135749    0.084907
 ---------------------------------------------------------------------

 SCF Done:  E(RHF) =  -549.597010475     A.U. after    1 cycles
 E2 =    -0.1284505132D+01 EUMP2 =    -0.55088151560627D+03
 E2 =    -0.1284505132D+01 EUMP2 =    -0.55088151560627D+03

 The electronic state is 1-A.
 Alpha  occ. eigenvalues --  -26.35510 -26.35497 -26.34838 -26.34768 -20.64886
 Alpha  occ. eigenvalues --  -11.51139 -11.45492  -1.70785  -1.68077  -1.63455
 Alpha  occ. eigenvalues --   -1.62580  -1.45813  -1.06640  -0.92491  -0.84152
 Alpha  occ. eigenvalues --   -0.82734  -0.81574  -0.78052  -0.76812  -0.71864
 Alpha  occ. eigenvalues --   -0.71069  -0.69453  -0.68563  -0.65744  -0.65279
 Alpha  occ. eigenvalues --   -0.63032  -0.62220  -0.57146  -0.55244
 Alpha virt. eigenvalues --    0.03028   0.04376   0.08648   0.09196   0.10738
 Alpha virt. eigenvalues --    0.11649   0.11841   0.13822   0.15802   0.18799
 Alpha virt. eigenvalues --    0.19825   0.20725   0.22135   0.25378   0.26240

 Mulliken charges:
               1
     1  O   -0.671384
     2  C    1.683717
     3  H    0.156183
     4  C    1.424346
     5  F   -0.649607
     6  F   -0.645936
     7  H   -0.103381
     8  F   -0.596569
     9  F   -0.597371
 Sum of Mulliken charges =   0.00000

 Dipole moment (field-independent basis, Debye):
    X=             -1.7932    Y=              0.8713    Z=             -1.6272  Tot=              2.5735
 Quadrupole moment (field-independent basis, Debye-Ang):
   XX=            -33.8398   YY=            -41.0367   ZZ=            -37.0623
   XY=             -2.9991   XZ=             -2.3266   YZ=              0.2397

  Exact polarizability:  36.190  -0.920  35.645   0.359  -0.133  33.173
 Approx polarizability:  27.309  -0.194  28.820   0.321  -0.049  27.560

                      1                      2                      3
                      A                      A                      A
 Frequencies --     78.2740               217.5894               238.5374
 Red. masses --     13.0451                12.8076                 9.8621
 Frc consts  --      0.0471                 0.3573                 0.3306
 IR Inten    --      0.9128                 2.8298                 8.0943

                      4                      5                      6
                      A                      A                      A
 Frequencies --    273.3244               366.4394               413.6008
 Red. masses --      1.1652                 9.7369                 9.3640
 Frc consts  --      0.0513                 0.7703                 0.9438
 IR Inten    --     92.9972                 5.0597                11.4524

                      7                      8                      9
                      A                      A                      A
 Frequencies --    522.7986               555.4993               575.8716
 Red. masses --     11.5919                 7.7328                13.8424
 Frc consts  --      1.8667                 1.4059                 2.7047
 IR Inten    --     20.0968                22.7077                 2.3823

                     10                     11                     12
                      A                      A                      A
 Frequencies --    694.6116               847.3720              1063.5721
 Red. masses --      6.8055                 5.8783                 3.5234
 Frc consts  --      1.9346                 2.4868                 2.3483
 IR Inten    --     40.3201                63.7163               170.0651

                     13                     14                     15
                      A                      A                      A
 Frequencies --   1108.5065              1130.6879              1181.0253
 Red. masses --      6.7362                 7.2069                 2.2629
 Frc consts  --      4.8769                 5.4286                 1.8597
 IR Inten    --     38.4552               275.0049                76.1974

                     16                     17                     18
                      A                      A                      A
 Frequencies --   1245.6020              1358.5650              1365.1132
 Red. masses --     10.2863                 1.2519                 1.3020
 Frc consts  --      9.4031                 1.3614                 1.4296
 IR Inten    --    359.3490                36.9084                29.9108

                     19                     20                     21
                      A                      A                      A
 Frequencies --   1508.2131              3176.1634              3786.8215
 Red. masses --      3.0733                 1.0889                 1.0654
 Frc consts  --      4.1189                 6.4721                 9.0015
 IR Inten    --     13.2046                12.4507                97.8644

 - Thermochemistry -
 -------------------
 Temperature   298.150 Kelvin.  Pressure   1.00000 Atm.
 Atom     1 has atomic number  8 and mass  15.99491

 Molecular mass:   118.00418 amu.
 Principal axes and moments of inertia in atomic units:
                           1         2         3
     Eigenvalues --   503.08709 749.62710 908.18366
           X            0.99843  -0.05563  -0.00641
           Y            0.05549   0.99826  -0.02015
           Z            0.00752   0.01976   0.99978
 This molecule is an asymmetric top.
 Rotational symmetry number  1.
 Warning -- assumption of classical behavior for rotation
           may cause significant error
 Rotational temperatures (Kelvin)      0.17216     0.11554     0.09537
 Rotational constants (GHZ):           3.58733     2.40752     1.98720
 Zero-point vibrational energy     129843.8 (Joules/Mol)
                                   31.03341 (Kcal/Mol)
 Warning -- explicit consideration of   9 degrees of freedom as
           vibrations may cause significant error
 Vibrational temperatures:    112.62   313.06   343.20   393.25   527.22
          (Kelvin)            595.08   752.19   799.24   828.55   999.39
                             1219.18  1530.24  1594.89  1626.81  1699.23
                             1792.14  1954.67  1964.09  2169.98  4569.79
                             5448.39

 Zero-point correction=                           0.049455 (Hartree/Particle)
 Thermal correction to Energy=                    0.056073
 Thermal correction to Enthalpy=                  0.057017
 Thermal correction to Gibbs Free Energy=         0.018396
 Sum of electronic and zero-point Energies=           -550.832061
 Sum of electronic and thermal Energies=              -550.825443
 Sum of electronic and thermal Enthalpies=            -550.824499
 Sum of electronic and thermal Free Energies=         -550.863120

                     E (Thermal)             CV                S
                      KCal/Mol        Cal/Mol-Kelvin    Cal/Mol-Kelvin
 Total                   35.186             22.600             81.285
 Electronic               0.000              0.000              0.000
 Translational            0.889              2.981             40.211
 Rotational               0.889              2.981             27.329
 Vibrational             33.409             16.639             13.744
 Vibration     1          0.600              1.964              3.934
 Vibration     2          0.646              1.814              1.979
 Vibration     3          0.657              1.782              1.814
 Vibration     4          0.676              1.723              1.575
 Vibration     5          0.739              1.541              1.095
 Vibration     6          0.777              1.441              0.914
 Vibration     7          0.878              1.200              0.604
 Vibration     8          0.911              1.128              0.533
 Vibration     9          0.932              1.083              0.493

 Optimization completed.
    -- Stationary point found.
 Normal termination of Gaussian 16 at Tue Feb  8 13:01:51 2022.
