 Gaussian 16, Revision A.03,
 Gaussian 16:  ES64L-G16RevA.03 25-Dec-2016

 --------------------------
 # MP2/aug-cc-pVDZ opt freq
 --------------------------

 ------------
 F F Ref Open
 ------------
 Symbolic Z-matrix:
 Charge =  0 Multiplicity = 1

 SCF Done:  E(RHF) =  -549.589809486     A.U. after   12 cycles
 E2 =    -0.1283300263D+01 EUMP2 =    -0.55087310974878D+03
 SCF Done:  E(RHF) =  -549.594453097     A.U. after   11 cycles
 E2 =    -0.1285740161D+01 EUMP2 =    -0.55088019325770D+03
 SCF Done:  E(RHF) =  -549.596605073     A.U. after   10 cycles
 E2 =    -0.1284747787D+01 EUMP2 =    -0.55088135286024D+03
 SCF Done:  E(RHF) =  -549.597189926     A.U. after    9 cycles
 E2 =    -0.1284267379D+01 EUMP2 =    -0.55088145730437D+03
 SCF Done:  E(RHF) =  -549.597100672     A.U. after    9 cycles
 E2 =    -0.1284382915D+01 EUMP2 =    -0.55088148358682D+03
 SCF Done:  E(RHF) =  -549.596970670     A.U. after    9 cycles
 E2 =    -0.1284535095D+01 EUMP2 =    -0.55088150576490D+03
 SCF Done:  E(RHF) =  -549.596931568     A.U. after    8 cycles
 E2 =    -0.1284579885D+01 EUMP2 =    -0.55088151145235D+03
 SCF Done:  E(RHF) =  -549.596965284     A.U. after    8 cycles
 E2 =    -0.1284549851D+01 EUMP2 =    -0.55088151513527D+03
 SCF Done:  E(RHF) =  -549.597006153     A.U. after    7 cycles
 E2 =    -0.1284509493D+01 EUMP2 =    -0.55088151564575D+03
 Optimization completed.
    -- Stationary point found.
 Normal termination of Gaussian 16 at Tue Feb  8 12:53:35 2022.

 ----------------------------------------------------------------------
 #N Geom=AllCheck Guess=TCheck SCRF=Check GenChk RMP2(FC)/Aug-CC-pVDZ F
 req
 ----------------------------------------------------------------------

 Structure from the checkpoint file:  "/gscratch/scrubbed/gds001/Gau-23963.chk"
 ------------
 F F Ref Open
 ------------
 Charge =  0 Multiplicity = 1

                         Standard orientation:
 ---------------------------------------------------------------------
 Center     Atomic      Atomic             Coordinates (Angstroms)
 Number     Number       Type             X           Y           Z
 ---------------------------------------------------------------------
      1          8           0        1.232872   -1.113153   -0.512946
      2          6           0        0.609280   -0.011109   -0.018504
      3          1           0        2.150710   -1.110113   -0.196237
      4          6           0       -0.859778   -0.035678   -0.455226
      5          9           0        1.182313    1.148155   -0.493832
      6          9           0        0.701025    0.058107    1.345257
      7          1           0       -0.954460   -0.064250   -1.549362
      8          9           0       -1.480222    1.080606    0.029268
      9          9           0       -1.464920   -1.135721    0.085035
 ---------------------------------------------------------------------

 SCF Done:  E(RHF) =  -549.597006153     A.U. after    1 cycles
 E2 =    -0.1284509505D+01 EUMP2 =    -0.55088151565788D+03
 E2 =    -0.1284509505D+01 EUMP2 =    -0.55088151565788D+03

 The electronic state is 1-A.
 Alpha  occ. eigenvalues --  -26.35506 -26.35493 -26.34837 -26.34771 -20.64889
 Alpha  occ. eigenvalues --  -11.51139 -11.45494  -1.70779  -1.68076  -1.63448
 Alpha  occ. eigenvalues --   -1.62580  -1.45821  -1.06640  -0.92489  -0.84153
 Alpha  occ. eigenvalues --   -0.82732  -0.81572  -0.78051  -0.76812  -0.71864
 Alpha  occ. eigenvalues --   -0.71067  -0.69448  -0.68564  -0.65737  -0.65279
 Alpha  occ. eigenvalues --   -0.63034  -0.62222  -0.57149  -0.55244
 Alpha virt. eigenvalues --    0.03027   0.04376   0.08648   0.09196   0.10738
 Alpha virt. eigenvalues --    0.11649   0.11841   0.13822   0.15802   0.18799
 Alpha virt. eigenvalues --    0.19824   0.20724   0.22136   0.25375   0.26240

 Mulliken charges:
               1
     1  O   -0.671330
     2  C    1.683580
     3  H    0.156238
     4  C    1.424297
     5  F   -0.649664
     6  F   -0.646011
     7  H   -0.103222
     8  F   -0.596508
     9  F   -0.597380
 Sum of Mulliken charges =  -0.00000

 Dipole moment (field-independent basis, Debye):
    X=              1.7931    Y=             -0.8725    Z=             -1.6284  Tot=              2.5745
 Quadrupole moment (field-independent basis, Debye-Ang):
   XX=            -33.8385   YY=            -41.0356   ZZ=            -37.0635
   XY=             -3.0026   XZ=              2.3250   YZ=             -0.2390

  Exact polarizability:  36.190  -0.919  35.645  -0.358   0.133  33.175
 Approx polarizability:  27.309  -0.194  28.821  -0.321   0.049  27.561

                      1                      2                      3
                      A                      A                      A
 Frequencies --     78.2868               217.6015               238.5236
 Red. masses --     13.0466                12.8122                 9.8948
 Frc consts  --      0.0471                 0.3574                 0.3317
 IR Inten    --      0.9140                 2.8162                 8.0399

                      4                      5                      6
                      A                      A                      A
 Frequencies --    273.5445               366.4437               413.6400
 Red. masses --      1.1650                 9.7267                 9.3550
 Frc consts  --      0.0514                 0.7695                 0.9431
 IR Inten    --     93.0750                 5.0803                11.4747

                      7                      8                      9
                      A                      A                      A
 Frequencies --    522.7719               555.5288               575.8790
 Red. masses --     11.5897                 7.7321                13.8475
 Frc consts  --      1.8661                 1.4059                 2.7057
 IR Inten    --     20.0964                22.7237                 2.3708

                     10                     11                     12
                      A                      A                      A
 Frequencies --    694.6074               847.2127              1063.5002
 Red. masses --      6.8046                 5.8807                 3.5263
 Frc consts  --      1.9343                 2.4869                 2.3498
 IR Inten    --     40.3517                63.8047               170.1787

                     13                     14                     15
                      A                      A                      A
 Frequencies --   1108.2172              1130.6493              1180.9880
 Red. masses --      6.7342                 7.2052                 2.2626
 Frc consts  --      4.8729                 5.4269                 1.8593
 IR Inten    --     38.5276               275.3604                75.2591

                     16                     17                     18
                      A                      A                      A
 Frequencies --   1245.9426              1358.5607              1365.1793
 Red. masses --     10.2647                 1.2524                 1.3016
 Frc consts  --      9.3885                 1.3619                 1.4292
 IR Inten    --    359.8520                37.0397                29.7275

                     19                     20                     21
                      A                      A                      A
 Frequencies --   1508.2189              3175.7918              3786.7596
 Red. masses --      3.0739                 1.0889                 1.0654
 Frc consts  --      4.1197                 6.4706                 9.0012
 IR Inten    --     13.1373                12.4532                97.9611

 - Thermochemistry -
 -------------------
 Temperature   298.150 Kelvin.  Pressure   1.00000 Atm.
 Atom     1 has atomic number  8 and mass  15.99491

 Molecular mass:   118.00418 amu.
 Principal axes and moments of inertia in atomic units:
                           1         2         3
     Eigenvalues --   503.09723 749.65014 908.20767
           X            0.99843  -0.05563   0.00641
           Y            0.05549   0.99826   0.02016
           Z           -0.00752  -0.01977   0.99978
 This molecule is an asymmetric top.
 Rotational symmetry number  1.
 Warning -- assumption of classical behavior for rotation
           may cause significant error
 Rotational temperatures (Kelvin)      0.17216     0.11554     0.09537
 Rotational constants (GHZ):           3.58726     2.40744     1.98715
 Zero-point vibrational energy     129841.8 (Joules/Mol)
                                   31.03293 (Kcal/Mol)
 Warning -- explicit consideration of   9 degrees of freedom as
           vibrations may cause significant error
 Vibrational temperatures:    112.64   313.08   343.18   393.57   527.23
          (Kelvin)            595.14   752.15   799.28   828.56   999.39
                             1218.95  1530.14  1594.48  1626.75  1699.18
                             1792.63  1954.67  1964.19  2169.99  4569.26
                             5448.30

 Zero-point correction=                           0.049454 (Hartree/Particle)
 Thermal correction to Energy=                    0.056072
 Thermal correction to Enthalpy=                  0.057016
 Thermal correction to Gibbs Free Energy=         0.018396
 Sum of electronic and zero-point Energies=           -550.832062
 Sum of electronic and thermal Energies=              -550.825444
 Sum of electronic and thermal Enthalpies=            -550.824500
 Sum of electronic and thermal Free Energies=         -550.863120

                     E (Thermal)             CV                S
                      KCal/Mol        Cal/Mol-Kelvin    Cal/Mol-Kelvin
 Total                   35.186             22.600             81.283
 Electronic               0.000              0.000              0.000
 Translational            0.889              2.981             40.211
 Rotational               0.889              2.981             27.329
 Vibrational             33.408             16.638             13.743
 Vibration     1          0.600              1.964              3.933
 Vibration     2          0.646              1.814              1.979
 Vibration     3          0.656              1.782              1.814
 Vibration     4          0.676              1.722              1.574
 Vibration     5          0.739              1.541              1.095
 Vibration     6          0.777              1.441              0.914
 Vibration     7          0.878              1.200              0.604
 Vibration     8          0.911              1.128              0.533
 Vibration     9          0.932              1.083              0.493

 Optimization completed.
    -- Stationary point found.
 Normal termination of Gaussian 16 at Tue Feb  8 12:58:08 2022.
