 Gaussian 16, Revision C.01,
 Gaussian 16:  EM64L-G16RevC.01  3-Jul-2019

 ----------------------------------------------
 # MP2/aug-cc-pVTZ opt freq=(vibrot,anharmonic)
 ----------------------------------------------

 ----
 blah
 ----
 Symbolic Z-matrix:
 Charge =  0 Multiplicity = 1

 SCF Done:  E(RHF) =  -170.124378209     A.U. after   12 cycles
 E2 =    -0.6533467204D+00 EUMP2 =    -0.17077772492990D+03
 SCF Done:  E(RHF) =  -170.128936898     A.U. after   11 cycles
 E2 =    -0.6507150893D+00 EUMP2 =    -0.17077965198766D+03
 SCF Done:  E(RHF) =  -170.131769218     A.U. after   11 cycles
 E2 =    -0.6487230570D+00 EUMP2 =    -0.17078049227501D+03
 SCF Done:  E(RHF) =  -170.132647182     A.U. after   11 cycles
 E2 =    -0.6482665462D+00 EUMP2 =    -0.17078091372797D+03
 SCF Done:  E(RHF) =  -170.132673114     A.U. after    9 cycles
 E2 =    -0.6484371995D+00 EUMP2 =    -0.17078111031380D+03
 SCF Done:  E(RHF) =  -170.132395727     A.U. after   10 cycles
 E2 =    -0.6487576317D+00 EUMP2 =    -0.17078115335895D+03
 SCF Done:  E(RHF) =  -170.132283256     A.U. after   11 cycles
 E2 =    -0.6488783924D+00 EUMP2 =    -0.17078116164863D+03
 SCF Done:  E(RHF) =  -170.131928776     A.U. after   12 cycles
 E2 =    -0.6492379167D+00 EUMP2 =    -0.17078116669253D+03
 SCF Done:  E(RHF) =  -170.132187134     A.U. after   11 cycles
 E2 =    -0.6489861612D+00 EUMP2 =    -0.17078117329559D+03
 SCF Done:  E(RHF) =  -170.132014570     A.U. after   11 cycles
 E2 =    -0.6491396817D+00 EUMP2 =    -0.17078115425178D+03
 E2 =    -0.6489432141D+00 EUMP2 =    -0.17078117498986D+03
 E2 =    -0.6488662684D+00 EUMP2 =    -0.17078116989703D+03
 E2 =    -0.6489285312D+00 EUMP2 =    -0.17078117535091D+03
 E2 =    -0.6488806883D+00 EUMP2 =    -0.17078117213412D+03
 E2 =    -0.6489463193D+00 EUMP2 =    -0.17078117626509D+03
 E2 =    -0.6489581026D+00 EUMP2 =    -0.17078117670537D+03
 E2 =    -0.6489498412D+00 EUMP2 =    -0.17078117756100D+03
 E2 =    -0.6489477418D+00 EUMP2 =    -0.17078117814891D+03
 E2 =    -0.6489576707D+00 EUMP2 =    -0.17078117883757D+03
 E2 =    -0.6489533416D+00 EUMP2 =    -0.17078117893891D+03
 Optimization completed.
    -- Stationary point found.
 Normal termination of Gaussian 16 at Fri Apr  4 03:04:50 2025.

 ----------------------------------------------------------------------
 #N Geom=AllCheck Guess=TCheck SCRF=Check GenChk RMP2(FC)/Aug-CC-pVTZ F
 req
 ----------------------------------------------------------------------

 Structure from the checkpoint file:  "/scr/Gau-90342.chk"
 ----
 blah
 ----
 Charge =  0 Multiplicity = 1

                         Standard orientation:
 ---------------------------------------------------------------------
 Center     Atomic      Atomic             Coordinates (Angstroms)
 Number     Number       Type             X           Y           Z
 ---------------------------------------------------------------------
      1          6           0        1.483312    0.502021    0.000009
      2          7           0        1.144461   -0.728445    0.000053
      3          1           0        0.767931    1.325561    0.000985
      4          1           0        2.539548    0.757136   -0.001142
      5          1           0        0.124571   -0.782587    0.001164
      6          8           0       -1.919502    0.105979    0.000094
      7          1           0       -2.495225   -0.030104    0.758700
      8          1           0       -2.491914   -0.030850   -0.760883
 ---------------------------------------------------------------------

 SCF Done:  E(RHF) =  -170.132046249     A.U. after    8 cycles
 E2 =    -0.6490697809D+00 EUMP2 =    -0.17078111602980D+03
 E2 =    -0.6490697809D+00 EUMP2 =    -0.17078111602980D+03
 SCF Done:  E(RHF) =  -170.132272749     A.U. after    8 cycles
 E2 =    -0.6488407045D+00 EUMP2 =    -0.17078111345383D+03
 E2 =    -0.6488407045D+00 EUMP2 =    -0.17078111345383D+03
 SCF Done:  E(RHF) =  -170.132188489     A.U. after    8 cycles
 E2 =    -0.6489212263D+00 EUMP2 =    -0.17078110971495D+03
 E2 =    -0.6489212263D+00 EUMP2 =    -0.17078110971495D+03
 SCF Done:  E(RHF) =  -170.132122610     A.U. after    8 cycles
 E2 =    -0.6489884528D+00 EUMP2 =    -0.17078111106291D+03
 E2 =    -0.6489884528D+00 EUMP2 =    -0.17078111106291D+03
 SCF Done:  E(RHF) =  -170.131850269     A.U. after    8 cycles
 E2 =    -0.6492487982D+00 EUMP2 =    -0.17078109906737D+03
 E2 =    -0.6492487982D+00 EUMP2 =    -0.17078109906737D+03
 SCF Done:  E(RHF) =  -170.132433935     A.U. after    8 cycles
 E2 =    -0.6486618023D+00 EUMP2 =    -0.17078109573725D+03
 E2 =    -0.6486618023D+00 EUMP2 =    -0.17078109573725D+03
 SCF Done:  E(RHF) =  -170.132703561     A.U. after    8 cycles
 E2 =    -0.6483755670D+00 EUMP2 =    -0.17078107912794D+03
 E2 =    -0.6483755670D+00 EUMP2 =    -0.17078107912794D+03
 SCF Done:  E(RHF) =  -170.131547724     A.U. after    8 cycles
 E2 =    -0.6495343053D+00 EUMP2 =    -0.17078108202914D+03
 E2 =    -0.6495343053D+00 EUMP2 =    -0.17078108202914D+03
 SCF Done:  E(RHF) =  -170.132121379     A.U. after    7 cycles
 E2 =    -0.6489527223D+00 EUMP2 =    -0.17078107410099D+03
 E2 =    -0.6489527223D+00 EUMP2 =    -0.17078107410099D+03
 SCF Done:  E(RHF) =  -170.132121521     A.U. after    7 cycles
 E2 =    -0.6489525715D+00 EUMP2 =    -0.17078107409243D+03
 E2 =    -0.6489525715D+00 EUMP2 =    -0.17078107409243D+03

 Alpha  occ. eigenvalues --  -20.58628 -15.54389 -11.26523  -1.37105  -1.18713
 Alpha  occ. eigenvalues --   -0.82474  -0.73380  -0.66841  -0.60330  -0.58296
 Alpha  occ. eigenvalues --   -0.53051  -0.42815  -0.41417
 Alpha virt. eigenvalues --    0.02255   0.04030   0.04398   0.05172   0.06334
 Alpha virt. eigenvalues --    0.08910   0.10325   0.13293   0.14422   0.15051
 Alpha virt. eigenvalues --    0.16006   0.16778   0.17233   0.18326   0.19095

 Mulliken charges:
               1
     1  C   -0.744766
     2  N   -0.557381
     3  H    0.487380
     4  H    0.473234
     5  H    0.343306
     6  O   -0.414109
     7  H    0.199392
     8  H    0.212944
 Sum of Mulliken charges =  -0.00000

 Dipole moment (field-independent basis, Debye):
    X=             -3.2378    Y=              1.4708    Z=             -0.0165  Tot=              3.5562
 Quadrupole moment (field-independent basis, Debye-Ang):
   XX=            -12.4781   YY=            -22.2303   ZZ=            -18.3393
   XY=              4.9822   XZ=              0.0536   YZ=              0.0043

  Exact polarizability:      34.812       1.888      35.345       0.069       0.016      26.367
 Approx polarizability:      25.556       2.477      29.837       0.057       0.015      23.733

                      1                      2                      3
                      A                      A                      A
 Frequencies --     42.5841                61.6693               102.6065
 Red. masses --      2.5425                 1.0483                 1.0690
 Frc consts  --      0.0027                 0.0023                 0.0066
 IR Inten    --      8.9603                24.8222                11.9447

                      4                      5                      6
                      A                      A                      A
 Frequencies --    132.6864               150.0292               258.9346
 Red. masses --      4.7860                 1.2195                 1.0649
 Frc consts  --      0.0496                 0.0162                 0.0421
 IR Inten    --      0.2355               211.0949                56.6199

                      7                      8                      9
                      A                      A                      A
 Frequencies --   1089.7058              1092.3173              1202.2694
 Red. masses --      1.0887                 1.3545                 1.0667
 Frc consts  --      0.7617                 0.9522                 0.9084
 IR Inten    --     26.2513                17.2667                35.2555

                     10                     11                     12
                      A                      A                      A
 Frequencies --   1393.1165              1483.9737              1629.9641
 Red. masses --      1.3947                 1.2442                 1.0832
 Frc consts  --      1.5948                 1.6143                 1.6956
 IR Inten    --     36.4451                 4.6188                70.9243

                     13                     14                     15
                      A                      A                      A
 Frequencies --   1665.9366              3082.1325              3184.8810
 Red. masses --      3.5101                 1.0562                 1.1153
 Frc consts  --      5.7396                 5.9117                 6.6653
 IR Inten    --     10.5631                37.6788                32.4098

                     16                     17                     18
                      A                      A                      A
 Frequencies --   3473.2105              3815.0019              3938.7176
 Red. masses --      1.0739                 1.0449                 1.0816
 Frc consts  --      7.6326                 8.9603                 9.8862
 IR Inten    --     50.1653                11.4271                88.3343

 - Thermochemistry -
 -------------------
 Temperature   298.150 Kelvin.  Pressure   1.00000 Atm.
 Atom     1 has atomic number  6 and mass  12.00000

 Molecular mass:    47.03711 amu.
 Principal axes and moments of inertia in atomic units:
                           1         2         3
     Eigenvalues --    52.33438 444.63339 488.65714
           X            0.99964   0.02670   0.00001
           Y           -0.02670   0.99964   0.00001
           Z           -0.00001  -0.00001   1.00000
 This molecule is an asymmetric top.
 Rotational symmetry number  1.
 Rotational temperatures (Kelvin)      1.65501     0.19480     0.17725
 Rotational constants (GHZ):          34.48481     4.05894     3.69327
 Zero-point vibrational energy     166279.4 (Joules/Mol)
                                   39.74172 (Kcal/Mol)
 Warning -- explicit consideration of   6 degrees of freedom as
           vibrations may cause significant error
 Vibrational temperatures:     61.27    88.73   147.63   190.91   215.86
          (Kelvin)            372.55  1567.84  1571.60  1729.80  2004.38
                             2135.11  2345.15  2396.91  4434.50  4582.33
                             4997.18  5488.94  5666.94

 Zero-point correction=                           0.063332 (Hartree/Particle)
 Thermal correction to Energy=                    0.070434
 Thermal correction to Enthalpy=                  0.071378
 Thermal correction to Gibbs Free Energy=         0.032503
 Sum of electronic and zero-point Energies=           -170.717846
 Sum of electronic and thermal Energies=              -170.710745
 Sum of electronic and thermal Enthalpies=            -170.709801
 Sum of electronic and thermal Free Energies=         -170.748676

                     E (Thermal)             CV                S
                      KCal/Mol        Cal/Mol-Kelvin    Cal/Mol-Kelvin
 Total                   44.198             18.488             81.819
 Electronic               0.000              0.000              0.000
 Translational            0.889              2.981             37.470
 Rotational               0.889              2.981             23.946
 Vibrational             42.420             12.526             20.404
 Vibration     1          0.595              1.980              5.135
 Vibration     2          0.597              1.973              4.403
 Vibration     3          0.605              1.947              3.404
 Vibration     4          0.613              1.921              2.907
 Vibration     5          0.618              1.903              2.672
 Vibration     6          0.668              1.748              1.669

 ## DEPERTURBED TRANSITIONS MOMENTS ##

 Electric dipole : Fundamental Bands
 ------------------------------------------------------------------------

 ## AFTER VARIATIONAL CORRECTION

 Electric dipole : Fundamental Bands
 ------------------------------------------------------------------------

                           ! Non-Optimized Parameters !
 Normal termination of Gaussian 16 at Fri Apr  4 08:51:00 2025.
