 Gaussian 16, Revision C.01,
 Gaussian 16:  EM64L-G16RevC.01  3-Jul-2019

 ----------------------------------------------
 # MP2/aug-cc-pVDZ opt freq=(vibrot,anharmonic)
 ----------------------------------------------

 ----
 blah
 ----
 Symbolic Z-matrix:
 Charge =  0 Multiplicity = 1

 SCF Done:  E(RHF) =  -170.084100549     A.U. after   12 cycles
 E2 =    -0.5422429698D+00 EUMP2 =    -0.17062634351826D+03
 SCF Done:  E(RHF) =  -170.086340388     A.U. after   12 cycles
 E2 =    -0.5414326466D+00 EUMP2 =    -0.17062777303473D+03
 SCF Done:  E(RHF) =  -170.089050477     A.U. after   12 cycles
 E2 =    -0.5397848466D+00 EUMP2 =    -0.17062883532323D+03
 SCF Done:  E(RHF) =  -170.089415461     A.U. after   12 cycles
 E2 =    -0.5397650578D+00 EUMP2 =    -0.17062918051868D+03
 SCF Done:  E(RHF) =  -170.089528010     A.U. after   12 cycles
 E2 =    -0.5397526146D+00 EUMP2 =    -0.17062928062458D+03
 SCF Done:  E(RHF) =  -170.089432135     A.U. after   11 cycles
 E2 =    -0.5398638641D+00 EUMP2 =    -0.17062929599913D+03
 SCF Done:  E(RHF) =  -170.089412489     A.U. after   10 cycles
 E2 =    -0.5398805826D+00 EUMP2 =    -0.17062929307141D+03
 SCF Done:  E(RHF) =  -170.089355821     A.U. after   12 cycles
 E2 =    -0.5399502454D+00 EUMP2 =    -0.17062930606658D+03
 SCF Done:  E(RHF) =  -170.089348393     A.U. after    9 cycles
 E2 =    -0.5399614434D+00 EUMP2 =    -0.17062930983634D+03
 SCF Done:  E(RHF) =  -170.089341331     A.U. after   11 cycles
 E2 =    -0.5399680098D+00 EUMP2 =    -0.17062930934101D+03
 E2 =    -0.5399290666D+00 EUMP2 =    -0.17062931106996D+03
 E2 =    -0.5399035373D+00 EUMP2 =    -0.17062931168816D+03
 E2 =    -0.5398396045D+00 EUMP2 =    -0.17062931308327D+03
 E2 =    -0.5398337683D+00 EUMP2 =    -0.17062931583384D+03
 E2 =    -0.5398548431D+00 EUMP2 =    -0.17062931889297D+03
 E2 =    -0.5399154353D+00 EUMP2 =    -0.17062931988151D+03
 E2 =    -0.5399199890D+00 EUMP2 =    -0.17062931990328D+03
 E2 =    -0.5399236033D+00 EUMP2 =    -0.17062931996240D+03
 E2 =    -0.5399249892D+00 EUMP2 =    -0.17062931995831D+03
 Optimization completed.
    -- Stationary point found.
 Normal termination of Gaussian 16 at Fri Apr  4 12:53:33 2025.

 ----------------------------------------------------------------------
 #N Geom=AllCheck Guess=TCheck SCRF=Check GenChk RMP2(FC)/Aug-CC-pVDZ F
 req
 ----------------------------------------------------------------------

 Structure from the checkpoint file:  "/scr/Gau-24555.chk"
 ----
 blah
 ----
 Charge =  0 Multiplicity = 1

                         Standard orientation:
 ---------------------------------------------------------------------
 Center     Atomic      Atomic             Coordinates (Angstroms)
 Number     Number       Type             X           Y           Z
 ---------------------------------------------------------------------
      1          6           0        1.465261    0.517306   -0.000011
      2          7           0        1.165956   -0.737004    0.000099
      3          1           0        0.714333    1.324289    0.001352
      4          1           0        2.523826    0.809054   -0.001549
      5          1           0        0.139563   -0.817861    0.001644
      6          8           0       -1.916032    0.094777    0.000175
      7          1           0       -2.503984   -0.008475    0.759910
      8          1           0       -2.498739   -0.010033   -0.763383
 ---------------------------------------------------------------------

 E2 =    -0.5399249955D+00 EUMP2 =    -0.17062931996465D+03
 SCF Done:  E(RHF) =  -170.089147064     A.U. after    8 cycles
 E2 =    -0.5401095071D+00 EUMP2 =    -0.17062925657099D+03
 E2 =    -0.5401095071D+00 EUMP2 =    -0.17062925657099D+03
 SCF Done:  E(RHF) =  -170.089512649     A.U. after    8 cycles
 E2 =    -0.5397419533D+00 EUMP2 =    -0.17062925460242D+03
 E2 =    -0.5397419533D+00 EUMP2 =    -0.17062925460242D+03
 SCF Done:  E(RHF) =  -170.089379001     A.U. after    9 cycles
 E2 =    -0.5398710978D+00 EUMP2 =    -0.17062925009857D+03
 E2 =    -0.5398710978D+00 EUMP2 =    -0.17062925009857D+03
 SCF Done:  E(RHF) =  -170.089272172     A.U. after    9 cycles
 E2 =    -0.5399793936D+00 EUMP2 =    -0.17062925156566D+03
 E2 =    -0.5399793936D+00 EUMP2 =    -0.17062925156566D+03
 SCF Done:  E(RHF) =  -170.088983877     A.U. after    9 cycles
 E2 =    -0.5402570572D+00 EUMP2 =    -0.17062924093429D+03
 E2 =    -0.5402570572D+00 EUMP2 =    -0.17062924093429D+03
 SCF Done:  E(RHF) =  -170.089642069     A.U. after    9 cycles
 E2 =    -0.5395952770D+00 EUMP2 =    -0.17062923734593D+03
 E2 =    -0.5395952770D+00 EUMP2 =    -0.17062923734593D+03
 SCF Done:  E(RHF) =  -170.089929774     A.U. after    9 cycles
 E2 =    -0.5392910571D+00 EUMP2 =    -0.17062922083157D+03
 E2 =    -0.5392910571D+00 EUMP2 =    -0.17062922083157D+03
 SCF Done:  E(RHF) =  -170.088662203     A.U. after    9 cycles
 E2 =    -0.5405619555D+00 EUMP2 =    -0.17062922415806D+03
 E2 =    -0.5405619555D+00 EUMP2 =    -0.17062922415806D+03
 SCF Done:  E(RHF) =  -170.089291274     A.U. after    8 cycles
 E2 =    -0.5399243100D+00 EUMP2 =    -0.17062921558355D+03
 E2 =    -0.5399243100D+00 EUMP2 =    -0.17062921558355D+03
 SCF Done:  E(RHF) =  -170.089291565     A.U. after    8 cycles
 E2 =    -0.5399240032D+00 EUMP2 =    -0.17062921556807D+03
 E2 =    -0.5399240032D+00 EUMP2 =    -0.17062921556807D+03

 Alpha  occ. eigenvalues --  -20.59730 -15.55670 -11.27827  -1.37211  -1.18349
 Alpha  occ. eigenvalues --   -0.82264  -0.73233  -0.66368  -0.60283  -0.57871
 Alpha  occ. eigenvalues --   -0.52920  -0.42407  -0.41487
 Alpha virt. eigenvalues --    0.02803   0.04833   0.05323   0.06378   0.07634
 Alpha virt. eigenvalues --    0.09972   0.12119   0.16545   0.17001   0.18249
 Alpha virt. eigenvalues --    0.19646   0.21493   0.21841   0.23194   0.23459

 Mulliken charges:
               1
     1  C    0.582784
     2  N   -0.298224
     3  H   -0.136047
     4  H   -0.204668
     5  H    0.074856
     6  O   -0.340801
     7  H    0.152722
     8  H    0.169377
 Sum of Mulliken charges =  -0.00000

 Dipole moment (field-independent basis, Debye):
    X=             -3.3441    Y=              1.5536    Z=             -0.0174  Tot=              3.6874
 Quadrupole moment (field-independent basis, Debye-Ang):
   XX=            -12.8113   YY=            -22.4512   ZZ=            -18.6067
   XY=              4.7949   XZ=              0.0546   YZ=              0.0043

  Exact polarizability:      34.728       1.752      35.622       0.068       0.013      26.414
 Approx polarizability:      25.607       2.344      30.401       0.055       0.012      23.845

                      1                      2                      3
                      A                      A                      A
 Frequencies --     45.6338                70.8796               114.0187
 Red. masses --      2.4748                 1.0443                 1.0717
 Frc consts  --      0.0030                 0.0031                 0.0082
 IR Inten    --      8.8839                21.4442                11.4056

                      4                      5                      6
                      A                      A                      A
 Frequencies --    130.9467               148.7430               261.3250
 Red. masses --      5.0959                 1.2173                 1.0678
 Frc consts  --      0.0515                 0.0159                 0.0430
 IR Inten    --      0.0804               212.7200                59.9545

                      7                      8                      9
                      A                      A                      A
 Frequencies --   1084.2142              1086.9377              1194.6475
 Red. masses --      1.0917                 1.3576                 1.0635
 Frc consts  --      0.7561                 0.9450                 0.8942
 IR Inten    --     25.4415                16.0054                38.8697

                     10                     11                     12
                      A                      A                      A
 Frequencies --   1388.9750              1475.2909              1626.3538
 Red. masses --      1.3934                 1.2583                 1.0826
 Frc consts  --      1.5839                 1.6135                 1.6871
 IR Inten    --     34.9608                 3.8357                67.4520

                     13                     14                     15
                      A                      A                      A
 Frequencies --   1652.6876              3086.3829              3198.3170
 Red. masses --      3.3763                 1.0564                 1.1151
 Frc consts  --      5.4334                 5.9288                 6.7203
 IR Inten    --      9.4964                38.6219                35.5748

                     16                     17                     18
                      A                      A                      A
 Frequencies --   3457.9473              3797.6247              3930.0823
 Red. masses --      1.0741                 1.0455                 1.0813
 Frc consts  --      7.5670                 8.8838                 9.8400
 IR Inten    --     36.4632                 9.5947                79.7373

 - Thermochemistry -
 -------------------
 Temperature   298.150 Kelvin.  Pressure   1.00000 Atm.
 Atom     1 has atomic number  6 and mass  12.00000

 Molecular mass:    47.03711 amu.
 Principal axes and moments of inertia in atomic units:
                           1         2         3
     Eigenvalues --    54.00089 443.78840 489.43798
           X            0.99966   0.02616   0.00002
           Y           -0.02616   0.99966   0.00003
           Z           -0.00002  -0.00003   1.00000
 This molecule is an asymmetric top.
 Rotational symmetry number  1.
 Rotational temperatures (Kelvin)      1.60394     0.19517     0.17697
 Rotational constants (GHZ):          33.42058     4.06667     3.68737
 Zero-point vibrational energy     165987.9 (Joules/Mol)
                                   39.67206 (Kcal/Mol)
 Warning -- explicit consideration of   6 degrees of freedom as
           vibrations may cause significant error
 Vibrational temperatures:     65.66   101.98   164.05   188.40   214.01
          (Kelvin)            375.99  1559.94  1563.86  1718.83  1998.43
                             2122.61  2339.96  2377.85  4440.62  4601.66
                             4975.21  5463.93  5654.51

 Zero-point correction=                           0.063221 (Hartree/Particle)
 Thermal correction to Energy=                    0.070280
 Thermal correction to Enthalpy=                  0.071224
 Thermal correction to Gibbs Free Energy=         0.032613
 Sum of electronic and zero-point Energies=           -170.566099
 Sum of electronic and thermal Energies=              -170.559040
 Sum of electronic and thermal Enthalpies=            -170.558096
 Sum of electronic and thermal Free Energies=         -170.596707

                     E (Thermal)             CV                S
                      KCal/Mol        Cal/Mol-Kelvin    Cal/Mol-Kelvin
 Total                   44.101             18.493             81.265
 Electronic               0.000              0.000              0.000
 Translational            0.889              2.981             37.470
 Rotational               0.889              2.981             23.976
 Vibrational             42.324             12.531             19.819
 Vibration     1          0.595              1.979              4.998
 Vibration     2          0.598              1.968              4.129
 Vibration     3          0.607              1.938              3.199
 Vibration     4          0.612              1.922              2.932
 Vibration     5          0.618              1.904              2.688
 Vibration     6          0.669              1.744              1.653

 ## DEPERTURBED TRANSITIONS MOMENTS ##

 Electric dipole : Fundamental Bands
 ------------------------------------------------------------------------

 ## AFTER VARIATIONAL CORRECTION

 Electric dipole : Fundamental Bands
 ------------------------------------------------------------------------

 Optimization completed on the basis of negligible forces.
    -- Stationary point found.
 Normal termination of Gaussian 16 at Fri Apr  4 13:06:28 2025.
