 Gaussian 16, Revision C.01,
 Gaussian 16:  EM64L-G16RevC.01  3-Jul-2019

 ----------------------------------------------
 # MP2/aug-cc-pVDZ opt freq=(vibrot,anharmonic)
 ----------------------------------------------

 ----
 blah
 ----
 Symbolic Z-matrix:
 Charge =  0 Multiplicity = 1

 SCF Done:  E(RHF) =  -150.248671608     A.U. after   12 cycles
 E2 =    -0.5233238297D+00 EUMP2 =    -0.15077199543747D+03
 SCF Done:  E(RHF) =  -150.250365424     A.U. after   12 cycles
 E2 =    -0.5227959555D+00 EUMP2 =    -0.15077316137946D+03
 SCF Done:  E(RHF) =  -150.252780980     A.U. after   12 cycles
 E2 =    -0.5214969282D+00 EUMP2 =    -0.15077427790845D+03
 SCF Done:  E(RHF) =  -150.253717740     A.U. after   12 cycles
 E2 =    -0.5209491842D+00 EUMP2 =    -0.15077466692390D+03
 SCF Done:  E(RHF) =  -150.254051463     A.U. after   11 cycles
 E2 =    -0.5206659248D+00 EUMP2 =    -0.15077471738794D+03
 SCF Done:  E(RHF) =  -150.254172374     A.U. after   11 cycles
 E2 =    -0.5205582157D+00 EUMP2 =    -0.15077473058964D+03
 SCF Done:  E(RHF) =  -150.254171389     A.U. after   10 cycles
 E2 =    -0.5205675609D+00 EUMP2 =    -0.15077473894997D+03
 SCF Done:  E(RHF) =  -150.254150527     A.U. after   11 cycles
 E2 =    -0.5205998402D+00 EUMP2 =    -0.15077475036735D+03
 SCF Done:  E(RHF) =  -150.254120663     A.U. after   11 cycles
 E2 =    -0.5206416544D+00 EUMP2 =    -0.15077476231787D+03
 SCF Done:  E(RHF) =  -150.254082314     A.U. after   11 cycles
 E2 =    -0.5206997136D+00 EUMP2 =    -0.15077478202761D+03
 E2 =    -0.5207688610D+00 EUMP2 =    -0.15077481262597D+03
 E2 =    -0.5207469478D+00 EUMP2 =    -0.15077483811350D+03
 E2 =    -0.5206744881D+00 EUMP2 =    -0.15077484952948D+03
 E2 =    -0.5206859266D+00 EUMP2 =    -0.15077485146436D+03
 E2 =    -0.5207068031D+00 EUMP2 =    -0.15077485203099D+03
 E2 =    -0.5207027185D+00 EUMP2 =    -0.15077485209460D+03
 E2 =    -0.5207044791D+00 EUMP2 =    -0.15077485209867D+03
 Optimization completed.
    -- Stationary point found.
 Normal termination of Gaussian 16 at Fri Apr  4 13:23:36 2025.

 ----------------------------------------------------------------------
 #N Geom=AllCheck Guess=TCheck SCRF=Check GenChk RMP2(FC)/Aug-CC-pVDZ F
 req
 ----------------------------------------------------------------------

 Structure from the checkpoint file:  "/scr/Gau-79932.chk"
 ----
 blah
 ----
 Charge =  0 Multiplicity = 1

                         Standard orientation:
 ---------------------------------------------------------------------
 Center     Atomic      Atomic             Coordinates (Angstroms)
 Number     Number       Type             X           Y           Z
 ---------------------------------------------------------------------
      1          6           0       -1.764993    0.400128   -0.000005
      2          7           0       -1.047281   -0.669670    0.000001
      3          1           0       -1.348328    1.422462    0.000094
      4          1           0       -2.859787    0.310135   -0.000107
      5          1           0       -0.049360   -0.403826    0.000091
      6          7           0        2.100227    0.094599   -0.000015
      7          1           0        2.497531   -0.362045    0.821420
      8          1           0        2.497916   -0.382788   -0.809389
      9          1           0        2.481367    1.040791   -0.011981
 ---------------------------------------------------------------------

 E2 =    -0.5207044830D+00 EUMP2 =    -0.15077485210252D+03
 E2 =    -0.5207044830D+00 EUMP2 =    -0.15077485210252D+03
 E2 =    -0.5207055753D+00 EUMP2 =    -0.15077485210403D+03
 SCF Done:  E(RHF) =  -150.254153207     A.U. after    9 cycles
 E2 =    -0.5206294115D+00 EUMP2 =    -0.15077478261806D+03
 E2 =    -0.5206294115D+00 EUMP2 =    -0.15077478261806D+03
 SCF Done:  E(RHF) =  -150.254004386     A.U. after    9 cycles
 E2 =    -0.5207800571D+00 EUMP2 =    -0.15077478444326D+03
 E2 =    -0.5207800571D+00 EUMP2 =    -0.15077478444326D+03
 SCF Done:  E(RHF) =  -150.253714126     A.U. after    9 cycles
 E2 =    -0.5210617551D+00 EUMP2 =    -0.15077477588118D+03
 E2 =    -0.5210617551D+00 EUMP2 =    -0.15077477588118D+03
 SCF Done:  E(RHF) =  -150.254422191     A.U. after    9 cycles
 E2 =    -0.5203501710D+00 EUMP2 =    -0.15077477236192D+03
 E2 =    -0.5203501710D+00 EUMP2 =    -0.15077477236192D+03
 SCF Done:  E(RHF) =  -150.254504170     A.U. after    8 cycles
 E2 =    -0.5202652821D+00 EUMP2 =    -0.15077476945201D+03
 E2 =    -0.5202652821D+00 EUMP2 =    -0.15077476945201D+03
 SCF Done:  E(RHF) =  -150.253625419     A.U. after    8 cycles
 E2 =    -0.5211460216D+00 EUMP2 =    -0.15077477144054D+03
 E2 =    -0.5211460216D+00 EUMP2 =    -0.15077477144054D+03
 SCF Done:  E(RHF) =  -150.254059533     A.U. after    8 cycles
 E2 =    -0.5207036648D+00 EUMP2 =    -0.15077476319801D+03
 E2 =    -0.5207036648D+00 EUMP2 =    -0.15077476319801D+03
 SCF Done:  E(RHF) =  -150.254059130     A.U. after    8 cycles
 E2 =    -0.5207040272D+00 EUMP2 =    -0.15077476315698D+03
 E2 =    -0.5207040272D+00 EUMP2 =    -0.15077476315698D+03
 SCF Done:  E(RHF) =  -150.254053125     A.U. after    9 cycles
 E2 =    -0.5207107685D+00 EUMP2 =    -0.15077476389322D+03
 E2 =    -0.5207107685D+00 EUMP2 =    -0.15077476389322D+03
 SCF Done:  E(RHF) =  -150.254065335     A.U. after    8 cycles
 E2 =    -0.5206968765D+00 EUMP2 =    -0.15077476221157D+03
 E2 =    -0.5206968765D+00 EUMP2 =    -0.15077476221157D+03

 Alpha  occ. eigenvalues --  -15.57024 -15.55259 -11.27705  -1.18050  -1.15798
 Alpha  occ. eigenvalues --   -0.82125  -0.65863  -0.64290  -0.63875  -0.57795
 Alpha  occ. eigenvalues --   -0.45652  -0.42163  -0.40554
 Alpha virt. eigenvalues --    0.02992   0.04708   0.05466   0.05775   0.06997
 Alpha virt. eigenvalues --    0.08524   0.09839   0.13612   0.16478   0.16641
 Alpha virt. eigenvalues --    0.17839   0.18186   0.19396   0.20760   0.20844

 Mulliken charges:
               1
     1  C    0.557512
     2  N   -0.244291
     3  H   -0.153216
     4  H   -0.205334
     5  H    0.084608
     6  N   -0.134882
     7  H    0.030579
     8  H    0.029792
     9  H    0.035232
 Sum of Mulliken charges =   0.00000

 Dipole moment (field-independent basis, Debye):
    X=              2.5620    Y=              2.0691    Z=              0.0003  Tot=              3.2932
 Quadrupole moment (field-independent basis, Debye-Ang):
   XX=            -14.0172   YY=            -21.8383   ZZ=            -20.5265
   XY=             -3.0686   XZ=              0.0004   YZ=              0.0003

  Exact polarizability:      44.334      -3.096      38.470       0.002      -0.000      29.732
 Approx polarizability:      31.339      -3.638      33.124       0.001       0.000      26.853

                      1                      2                      3
                      A                      A                      A
 Frequencies --      7.1472                47.9155               110.9327
 Red. masses --      1.1746                 2.0915                 1.0347
 Frc consts  --      0.0000                 0.0028                 0.0075
 IR Inten    --      4.0733                11.6454                 6.9902

                      4                      5                      6
                      A                      A                      A
 Frequencies --    138.0980               206.4421               302.8547
 Red. masses --      3.6316                 1.3008                 1.0861
 Frc consts  --      0.0408                 0.0327                 0.0587
 IR Inten    --      3.0341                30.4832                50.7725

                      7                      8                      9
                      A                      A                      A
 Frequencies --   1079.9044              1090.8621              1106.6612
 Red. masses --      1.3607                 1.1788                 1.1201
 Frc consts  --      0.9349                 0.8265                 0.8082
 IR Inten    --     16.3951               152.5612                10.2577

                     10                     11                     12
                      A                      A                      A
 Frequencies --   1225.9317              1411.2644              1478.9441
 Red. masses --      1.0636                 1.3633                 1.2501
 Frc consts  --      0.9418                 1.5998                 1.6110
 IR Inten    --     37.1604                37.8681                 1.0539

                     13                     14                     15
                      A                      A                      A
 Frequencies --   1647.5161              1648.5685              1657.1400
 Red. masses --      1.0636                 1.0690                 3.2486
 Frc consts  --      1.7010                 1.7117                 5.2562
 IR Inten    --     14.9362                17.2153                 9.8378

                     16                     17                     18
                      A                      A                      A
 Frequencies --   3068.9547              3185.3152              3396.5929
 Red. masses --      1.0586                 1.1118                 1.0759
 Frc consts  --      5.8745                 6.6466                 7.3133
 IR Inten    --     55.1611                48.2184               175.3766

                     19                     20                     21
                      A                      A                      A
 Frequencies --   3476.0934              3627.3847              3629.9413
 Red. masses --      1.0277                 1.0887                 1.0887
 Frc consts  --      7.3167                 8.4400                 8.4522
 IR Inten    --      3.4364                 9.2575                 8.6468

 - Thermochemistry -
 -------------------
 Temperature   298.150 Kelvin.  Pressure   1.00000 Atm.
 Atom     1 has atomic number  6 and mass  12.00000

 Molecular mass:    46.05310 amu.
 Principal axes and moments of inertia in atomic units:
                           1         2         3
     Eigenvalues --    47.32941 516.06536 553.82151
           X            0.99989  -0.01476   0.00000
           Y            0.01476   0.99989   0.00000
           Z           -0.00000  -0.00000   1.00000
 This molecule is an asymmetric top.
 Rotational symmetry number  1.
 Rotational temperatures (Kelvin)      1.83002     0.16784     0.15639
 Rotational constants (GHZ):          38.13150     3.49712     3.25871
 Zero-point vibrational energy     200640.5 (Joules/Mol)
                                   47.95422 (Kcal/Mol)
 Warning -- explicit consideration of   6 degrees of freedom as
           vibrations may cause significant error
 Vibrational temperatures:     10.28    68.94   159.61   198.69   297.02
          (Kelvin)            435.74  1553.74  1569.51  1592.24  1763.84
                             2030.49  2127.87  2370.41  2371.92  2384.25
                             4415.54  4582.96  4886.94  5001.32  5219.00
                             5222.68

 Zero-point correction=                           0.076420 (Hartree/Particle)
 Thermal correction to Energy=                    0.083478
 Thermal correction to Enthalpy=                  0.084422
 Thermal correction to Gibbs Free Energy=         0.044063
 Sum of electronic and zero-point Energies=           -150.698432
 Sum of electronic and thermal Energies=              -150.691374
 Sum of electronic and thermal Enthalpies=            -150.690430
 Sum of electronic and thermal Free Energies=         -150.730789

                     E (Thermal)             CV                S
                      KCal/Mol        Cal/Mol-Kelvin    Cal/Mol-Kelvin
 Total                   52.383             18.644             84.942
 Electronic               0.000              0.000              0.000
 Translational            0.889              2.981             37.407
 Rotational               0.889              2.981             24.118
 Vibrational             50.606             12.682             23.417
 Vibration     1          0.593              1.987              8.678
 Vibration     2          0.595              1.978              4.902
 Vibration     3          0.607              1.940              3.253
 Vibration     4          0.614              1.915              2.830
 Vibration     5          0.641              1.831              2.075
 Vibration     6          0.694              1.668              1.401

 ## DEPERTURBED TRANSITIONS MOMENTS ##

 Electric dipole : Fundamental Bands
 ------------------------------------------------------------------------

 ## AFTER VARIATIONAL CORRECTION

 Electric dipole : Fundamental Bands
 ------------------------------------------------------------------------

 Optimization completed on the basis of negligible forces.
    -- Stationary point found.
 Normal termination of Gaussian 16 at Fri Apr  4 13:40:48 2025.
