 Gaussian 16, Revision C.01,
 Gaussian 16:  EM64L-G16RevC.01  3-Jul-2019

 ----------------------------------------------
 # MP2/aug-cc-pVTZ opt freq=(vibrot,anharmonic)
 ----------------------------------------------

 ----
 blah
 ----
 Symbolic Z-matrix:
 Charge =  0 Multiplicity = 1

 SCF Done:  E(RHF) =  -150.292580403     A.U. after   11 cycles
 E2 =    -0.6213418476D+00 EUMP2 =    -0.15091392225066D+03
 SCF Done:  E(RHF) =  -150.292591217     A.U. after   11 cycles
 E2 =    -0.6213306869D+00 EUMP2 =    -0.15091392190370D+03
 SCF Done:  E(RHF) =  -150.292584914     A.U. after   10 cycles
 E2 =    -0.6213394950D+00 EUMP2 =    -0.15091392440869D+03
 SCF Done:  E(RHF) =  -150.292579381     A.U. after    9 cycles
 E2 =    -0.6213458523D+00 EUMP2 =    -0.15091392523335D+03
 SCF Done:  E(RHF) =  -150.292575214     A.U. after   10 cycles
 E2 =    -0.6213528303D+00 EUMP2 =    -0.15091392804448D+03
 SCF Done:  E(RHF) =  -150.292567392     A.U. after   10 cycles
 E2 =    -0.6213630174D+00 EUMP2 =    -0.15091393040915D+03
 SCF Done:  E(RHF) =  -150.292562831     A.U. after   10 cycles
 E2 =    -0.6213680009D+00 EUMP2 =    -0.15091393083217D+03
 SCF Done:  E(RHF) =  -150.292560458     A.U. after    9 cycles
 E2 =    -0.6213707576D+00 EUMP2 =    -0.15091393121593D+03
 SCF Done:  E(RHF) =  -150.292559632     A.U. after    9 cycles
 E2 =    -0.6213720923D+00 EUMP2 =    -0.15091393172394D+03
 SCF Done:  E(RHF) =  -150.292559943     A.U. after    7 cycles
 E2 =    -0.6213718984D+00 EUMP2 =    -0.15091393184171D+03
 E2 =    -0.6213698264D+00 EUMP2 =    -0.15091393207835D+03
 E2 =    -0.6213641845D+00 EUMP2 =    -0.15091393243422D+03
 E2 =    -0.6213579891D+00 EUMP2 =    -0.15091393268703D+03
 E2 =    -0.6213566347D+00 EUMP2 =    -0.15091393291675D+03
 E2 =    -0.6213574745D+00 EUMP2 =    -0.15091393318311D+03
 E2 =    -0.6213605011D+00 EUMP2 =    -0.15091393334644D+03
 E2 =    -0.6213664379D+00 EUMP2 =    -0.15091393351350D+03
 E2 =    -0.6213733836D+00 EUMP2 =    -0.15091393367172D+03
 E2 =    -0.6213820054D+00 EUMP2 =    -0.15091393382301D+03
 E2 =    -0.6213894483D+00 EUMP2 =    -0.15091393397379D+03
 Optimization completed.
    -- Stationary point found.
 Normal termination of Gaussian 16 at Mon Apr  7 18:09:39 2025.

 ----------------------------------------------------------------------
 #N Geom=AllCheck Guess=TCheck SCRF=Check GenChk RMP2(FC)/Aug-CC-pVTZ F
 req
 ----------------------------------------------------------------------

 Structure from the checkpoint file:  "/scr/Gau-77475.chk"
 ----
 blah
 ----
 Charge =  0 Multiplicity = 1

                         Standard orientation:
 ---------------------------------------------------------------------
 Center     Atomic      Atomic             Coordinates (Angstroms)
 Number     Number       Type             X           Y           Z
 ---------------------------------------------------------------------
      1          6           0       -1.734359    0.405931   -0.000004
      2          7           0       -1.053162   -0.671983   -0.000007
      3          1           0       -1.292920    1.405144   -0.000050
      4          1           0       -2.819949    0.349205    0.000062
      5          1           0       -0.054872   -0.440782   -0.000086
      6          7           0        2.080387    0.090350   -0.000021
      7          1           0        2.439006    0.576155    0.812883
      8          1           0        2.504789   -0.829407    0.000481
      9          1           0        2.439528    0.575530   -0.813074
 ---------------------------------------------------------------------

 SCF Done:  E(RHF) =  -150.292539408     A.U. after    8 cycles
 E2 =    -0.6213293410D+00 EUMP2 =    -0.15091386874915D+03
 E2 =    -0.6213293410D+00 EUMP2 =    -0.15091386874915D+03
 SCF Done:  E(RHF) =  -150.292444341     A.U. after    8 cycles
 E2 =    -0.6214262282D+00 EUMP2 =    -0.15091387056886D+03
 E2 =    -0.6214262282D+00 EUMP2 =    -0.15091387056886D+03
 SCF Done:  E(RHF) =  -150.292160218     A.U. after    8 cycles
 E2 =    -0.6217006943D+00 EUMP2 =    -0.15091386091247D+03
 E2 =    -0.6217006943D+00 EUMP2 =    -0.15091386091247D+03
 SCF Done:  E(RHF) =  -150.292801133     A.U. after    8 cycles
 E2 =    -0.6210562223D+00 EUMP2 =    -0.15091385735581D+03
 E2 =    -0.6210562223D+00 EUMP2 =    -0.15091385735581D+03
 SCF Done:  E(RHF) =  -150.292831753     A.U. after    8 cycles
 E2 =    -0.6210223193D+00 EUMP2 =    -0.15091385407235D+03
 E2 =    -0.6210223193D+00 EUMP2 =    -0.15091385407235D+03
 SCF Done:  E(RHF) =  -150.292121909     A.U. after    8 cycles
 E2 =    -0.6217340560D+00 EUMP2 =    -0.15091385596541D+03
 E2 =    -0.6217340560D+00 EUMP2 =    -0.15091385596541D+03
 SCF Done:  E(RHF) =  -150.292465579     A.U. after    8 cycles
 E2 =    -0.6213819288D+00 EUMP2 =    -0.15091384750778D+03
 E2 =    -0.6213819288D+00 EUMP2 =    -0.15091384750778D+03
 SCF Done:  E(RHF) =  -150.292477762     A.U. after    8 cycles
 E2 =    -0.6213709163D+00 EUMP2 =    -0.15091384867847D+03
 E2 =    -0.6213709163D+00 EUMP2 =    -0.15091384867847D+03
 SCF Done:  E(RHF) =  -150.292471548     A.U. after    8 cycles
 E2 =    -0.6213764940D+00 EUMP2 =    -0.15091384804216D+03
 E2 =    -0.6213764940D+00 EUMP2 =    -0.15091384804216D+03
 SCF Done:  E(RHF) =  -150.292471557     A.U. after    8 cycles
 E2 =    -0.6213763179D+00 EUMP2 =    -0.15091384787478D+03
 E2 =    -0.6213763179D+00 EUMP2 =    -0.15091384787478D+03

 Alpha  occ. eigenvalues --  -15.55790 -15.53969 -11.26363  -1.18389  -1.15963
 Alpha  occ. eigenvalues --   -0.82282  -0.66344  -0.64713  -0.64346  -0.58169
 Alpha  occ. eigenvalues --   -0.45647  -0.42540  -0.40481
 Alpha virt. eigenvalues --    0.02432   0.03931   0.04490   0.04549   0.05961
 Alpha virt. eigenvalues --    0.06924   0.08884   0.11786   0.13324   0.13949
 Alpha virt. eigenvalues --    0.14741   0.14960   0.15337   0.16667   0.16687

 Mulliken charges:
               1
     1  C   -0.791726
     2  N   -0.551603
     3  H    0.440834
     4  H    0.476858
     5  H    0.408302
     6  N   -0.503680
     7  H    0.175086
     8  H    0.164423
     9  H    0.181506
 Sum of Mulliken charges =  -0.00000

 Dipole moment (field-independent basis, Debye):
    X=              2.5867    Y=              2.0959    Z=             -0.0052  Tot=              3.3293
 Quadrupole moment (field-independent basis, Debye-Ang):
   XX=            -14.0756   YY=            -21.4535   ZZ=            -20.2538
   XY=             -3.1082   XZ=             -0.0189   YZ=             -0.0133

  Exact polarizability:      43.648      -2.796      38.177      -0.059      -0.062      29.639
 Approx polarizability:      30.745      -3.348      32.784      -0.044      -0.055      26.654

                      1                      2                      3
                      A                      A                      A
 Frequencies --     17.9224                47.4261               107.7124
 Red. masses --      1.1726                 2.1301                 1.0361
 Frc consts  --      0.0002                 0.0028                 0.0071
 IR Inten    --      2.8644                 9.9874                 7.8891

                      4                      5                      6
                      A                      A                      A
 Frequencies --    141.5742               210.3101               293.7959
 Red. masses --      3.8929                 1.2508                 1.0785
 Frc consts  --      0.0460                 0.0326                 0.0548
 IR Inten    --      1.8598                31.6991                49.6622

                      7                      8                      9
                      A                      A                      A
 Frequencies --   1075.1637              1086.9734              1112.3819
 Red. masses --      1.1816                 1.3574                 1.1143
 Frc consts  --      0.8048                 0.9449                 0.8124
 IR Inten    --    156.7077                17.1767                14.8099

                     10                     11                     12
                      A                      A                      A
 Frequencies --   1229.7288              1414.4353              1486.3211
 Red. masses --      1.0663                 1.3648                 1.2355
 Frc consts  --      0.9501                 1.6087                 1.6081
 IR Inten    --     33.2164                39.1498                 1.9390

                     13                     14                     15
                      A                      A                      A
 Frequencies --   1667.1058              1669.0750              1670.2957
 Red. masses --      1.1703                 1.0654                 2.6711
 Frc consts  --      1.9163                 1.7487                 4.3906
 IR Inten    --      7.3429                16.2346                20.5132

                     16                     17                     18
                      A                      A                      A
 Frequencies --   3065.7639              3172.6162              3408.9967
 Red. masses --      1.0584                 1.1121                 1.0755
 Frc consts  --      5.8610                 6.5955                 7.3643
 IR Inten    --     52.5442                43.5585               188.4311

                     19                     20                     21
                      A                      A                      A
 Frequencies --   3497.5422              3640.9772              3643.7295
 Red. masses --      1.0268                 1.0892                 1.0893
 Frc consts  --      7.4004                 8.5070                 8.5208
 IR Inten    --      2.4525                13.6886                12.6977

 - Thermochemistry -
 -------------------
 Temperature   298.150 Kelvin.  Pressure   1.00000 Atm.
 Atom     1 has atomic number  6 and mass  12.00000

 Molecular mass:    46.05310 amu.
 Principal axes and moments of inertia in atomic units:
                           1         2         3
     Eigenvalues --    47.60684 504.91901 543.01102
           X            0.99989  -0.01499   0.00000
           Y            0.01499   0.99989  -0.00000
           Z           -0.00000   0.00000   1.00000
 This molecule is an asymmetric top.
 Rotational symmetry number  1.
 Rotational temperatures (Kelvin)      1.81936     0.17154     0.15951
 Rotational constants (GHZ):          37.90929     3.57432     3.32358
 Zero-point vibrational energy     201330.6 (Joules/Mol)
                                   48.11917 (Kcal/Mol)
 Warning -- explicit consideration of   6 degrees of freedom as
           vibrations may cause significant error
 Vibrational temperatures:     25.79    68.24   154.97   203.69   302.59
          (Kelvin)            422.71  1546.92  1563.91  1600.47  1769.31
                             2035.06  2138.48  2398.59  2401.43  2403.18
                             4410.95  4564.69  4904.79  5032.18  5238.55
                             5242.51

 Zero-point correction=                           0.076683 (Hartree/Particle)
 Thermal correction to Energy=                    0.083722
 Thermal correction to Enthalpy=                  0.084666
 Thermal correction to Gibbs Free Energy=         0.045171
 Sum of electronic and zero-point Energies=           -150.837255
 Sum of electronic and thermal Energies=              -150.830216
 Sum of electronic and thermal Enthalpies=            -150.829271
 Sum of electronic and thermal Free Energies=         -150.868767

                     E (Thermal)             CV                S
                      KCal/Mol        Cal/Mol-Kelvin    Cal/Mol-Kelvin
 Total                   52.536             18.643             83.126
 Electronic               0.000              0.000              0.000
 Translational            0.889              2.981             37.407
 Rotational               0.889              2.981             24.083
 Vibrational             50.759             12.681             21.636
 Vibration     1          0.593              1.986              6.852
 Vibration     2          0.595              1.979              4.922
 Vibration     3          0.606              1.943              3.310
 Vibration     4          0.615              1.912              2.782
 Vibration     5          0.642              1.825              2.041
 Vibration     6          0.689              1.685              1.452

 ## DEPERTURBED TRANSITIONS MOMENTS ##

 Electric dipole : Fundamental Bands
 ------------------------------------------------------------------------

 ## AFTER VARIATIONAL CORRECTION

 Electric dipole : Fundamental Bands
 ------------------------------------------------------------------------

 Optimization completed.
    -- Stationary point found.
 Normal termination of Gaussian 16 at Tue Apr  8 03:41:01 2025.
