 Gaussian 16, Revision C.01,
 Gaussian 16:  EM64L-G16RevC.01  3-Jul-2019

 ----------------------------------------------
 # MP2/aug-cc-pVDZ opt freq=(vibrot,anharmonic)
 ----------------------------------------------

 ----
 blah
 ----
 Symbolic Z-matrix:
 Charge =  0 Multiplicity = 1

 SCF Done:  E(RHF) =  -284.881927189     A.U. after   13 cycles
 E2 =    -0.9516022822D+00 EUMP2 =    -0.28583352947170D+03
 SCF Done:  E(RHF) =  -284.881822501     A.U. after   11 cycles
 E2 =    -0.9517176049D+00 EUMP2 =    -0.28583354010608D+03
 SCF Done:  E(RHF) =  -284.881812568     A.U. after   11 cycles
 E2 =    -0.9517581230D+00 EUMP2 =    -0.28583357069135D+03
 SCF Done:  E(RHF) =  -284.881866162     A.U. after   10 cycles
 E2 =    -0.9517434224D+00 EUMP2 =    -0.28583360958444D+03
 SCF Done:  E(RHF) =  -284.881885131     A.U. after   10 cycles
 E2 =    -0.9517484271D+00 EUMP2 =    -0.28583363355788D+03
 SCF Done:  E(RHF) =  -284.882040285     A.U. after    9 cycles
 E2 =    -0.9516221506D+00 EUMP2 =    -0.28583366243510D+03
 SCF Done:  E(RHF) =  -284.882275647     A.U. after   10 cycles
 E2 =    -0.9514151679D+00 EUMP2 =    -0.28583369081518D+03
 SCF Done:  E(RHF) =  -284.882316258     A.U. after   10 cycles
 E2 =    -0.9513854456D+00 EUMP2 =    -0.28583370170355D+03
 SCF Done:  E(RHF) =  -284.882317543     A.U. after    9 cycles
 E2 =    -0.9513894353D+00 EUMP2 =    -0.28583370697839D+03
 SCF Done:  E(RHF) =  -284.882320072     A.U. after    9 cycles
 E2 =    -0.9513916842D+00 EUMP2 =    -0.28583371175578D+03
 E2 =    -0.9514025188D+00 EUMP2 =    -0.28583371554260D+03
 E2 =    -0.9514219192D+00 EUMP2 =    -0.28583371719783D+03
 E2 =    -0.9514313431D+00 EUMP2 =    -0.28583371749894D+03
 E2 =    -0.9514305820D+00 EUMP2 =    -0.28583371764106D+03
 E2 =    -0.9514276071D+00 EUMP2 =    -0.28583371773742D+03
 Optimization completed.
    -- Stationary point found.
 Normal termination of Gaussian 16 at Tue Apr  8 17:42:37 2025.

 ----------------------------------------------------------------------
 #N Geom=AllCheck Guess=TCheck SCRF=Check GenChk RMP2(FC)/Aug-CC-pVDZ F
 req
 ----------------------------------------------------------------------

 Structure from the checkpoint file:  "/scr/Gau-98423.chk"
 ----
 blah
 ----
 Charge =  0 Multiplicity = 1

                         Standard orientation:
 ---------------------------------------------------------------------
 Center     Atomic      Atomic             Coordinates (Angstroms)
 Number     Number       Type             X           Y           Z
 ---------------------------------------------------------------------
      1          6           0        1.906695    0.724870    0.000508
      2          6           0        0.566568    1.127242   -0.000368
      3          1           0        2.769366    1.389952    0.001067
      4          7           0       -0.212371   -0.009272   -0.000960
      5          1           0        0.116954    2.118175   -0.000645
      6          6           0        0.587145   -1.131193   -0.000343
      7          1           0       -1.230804   -0.017611   -0.001554
      8          6           0        1.919571   -0.704186    0.000465
      9          1           0        0.154841   -2.129740   -0.000688
     10          1           0        2.794206   -1.353426    0.001006
     11          8           0       -3.190063   -0.047911    0.000203
     12          1           0       -3.741122    0.170908   -0.762411
     13          1           0       -3.736209    0.169535    0.766745
 ---------------------------------------------------------------------

 E2 =    -0.9514276039D+00 EUMP2 =    -0.28583371773418D+03
 E2 =    -0.9514276039D+00 EUMP2 =    -0.28583371773418D+03
 E2 =    -0.9514281023D+00 EUMP2 =    -0.28583371771914D+03
 E2 =    -0.9514281023D+00 EUMP2 =    -0.28583371771914D+03
 E2 =    -0.9514275367D+00 EUMP2 =    -0.28583371772972D+03
 SCF Done:  E(RHF) =  -284.882199010     A.U. after    9 cycles
 E2 =    -0.9514455400D+00 EUMP2 =    -0.28583364454959D+03
 E2 =    -0.9514455400D+00 EUMP2 =    -0.28583364454959D+03
 SCF Done:  E(RHF) =  -284.882234129     A.U. after    9 cycles
 E2 =    -0.9514101640D+00 EUMP2 =    -0.28583364429338D+03
 E2 =    -0.9514101640D+00 EUMP2 =    -0.28583364429338D+03
 SCF Done:  E(RHF) =  -284.882490158     A.U. after    9 cycles
 E2 =    -0.9511532131D+00 EUMP2 =    -0.28583364337066D+03
 E2 =    -0.9511532131D+00 EUMP2 =    -0.28583364337066D+03
 SCF Done:  E(RHF) =  -284.881942455     A.U. after    9 cycles
 E2 =    -0.9517023915D+00 EUMP2 =    -0.28583364484620D+03
 E2 =    -0.9517023915D+00 EUMP2 =    -0.28583364484620D+03
 SCF Done:  E(RHF) =  -284.881828409     A.U. after    9 cycles
 E2 =    -0.9518049259D+00 EUMP2 =    -0.28583363333513D+03
 E2 =    -0.9518049259D+00 EUMP2 =    -0.28583363333513D+03
 SCF Done:  E(RHF) =  -284.882577395     A.U. after    9 cycles
 E2 =    -0.9510528386D+00 EUMP2 =    -0.28583363023335D+03
 E2 =    -0.9510528386D+00 EUMP2 =    -0.28583363023335D+03
 SCF Done:  E(RHF) =  -284.881562254     A.U. after    9 cycles
 E2 =    -0.9520593636D+00 EUMP2 =    -0.28583362161794D+03
 E2 =    -0.9520593636D+00 EUMP2 =    -0.28583362161794D+03
 SCF Done:  E(RHF) =  -284.882819891     A.U. after    9 cycles
 E2 =    -0.9507988360D+00 EUMP2 =    -0.28583361872700D+03
 E2 =    -0.9507988360D+00 EUMP2 =    -0.28583361872700D+03
 SCF Done:  E(RHF) =  -284.882186660     A.U. after    8 cycles
 E2 =    -0.9514266060D+00 EUMP2 =    -0.28583361326635D+03
 E2 =    -0.9514266060D+00 EUMP2 =    -0.28583361326635D+03
 SCF Done:  E(RHF) =  -284.882186197     A.U. after    8 cycles
 E2 =    -0.9514271135D+00 EUMP2 =    -0.28583361331085D+03
 E2 =    -0.9514271135D+00 EUMP2 =    -0.28583361331085D+03

 Alpha  occ. eigenvalues --  -20.61073 -15.59367 -11.24859 -11.24825 -11.20843
 Alpha  occ. eigenvalues --  -11.20738  -1.38669  -1.26889  -1.02226  -0.95752
 Alpha  occ. eigenvalues --   -0.77548  -0.74961  -0.74758  -0.71752  -0.62866
 Alpha  occ. eigenvalues --   -0.56688  -0.56493  -0.54391  -0.54137  -0.52953
 Alpha  occ. eigenvalues --   -0.51213  -0.32898  -0.27947
 Alpha virt. eigenvalues --    0.02038   0.04822   0.04881   0.04957   0.06050
 Alpha virt. eigenvalues --    0.06473   0.08750   0.11521   0.13264   0.13710
 Alpha virt. eigenvalues --    0.14757   0.14774   0.15141   0.15978   0.16277

 Mulliken charges:
               1
     1  C    0.393520
     2  C    0.428613
     3  H   -0.347475
     4  N   -0.137129
     5  H   -0.342525
     6  C    0.415558
     7  H   -0.097554
     8  C    0.392828
     9  H   -0.328096
    10  H   -0.347452
    11  O   -0.320565
    12  H    0.154451
    13  H    0.135826
 Sum of Mulliken charges =  -0.00000

 Dipole moment (field-independent basis, Debye):
    X=             -4.6294    Y=              0.6405    Z=             -0.0100  Tot=              4.6735
 Quadrupole moment (field-independent basis, Debye-Ang):
   XX=            -21.7457   YY=            -36.2073   ZZ=            -39.8753
   XY=             -2.7801   XZ=              0.0602   YZ=             -0.0090

  Exact polarizability:      77.018      -0.285      72.812       0.090      -0.022      49.518
 Approx polarizability:      66.273      -0.407      65.136       0.070      -0.023      48.541

                      1                      2                      3
                      A                      A                      A
 Frequencies --     39.3837                52.6069                99.4091
 Red. masses --      3.1324                 2.3343                 1.0940
 Frc consts  --      0.0029                 0.0038                 0.0064
 IR Inten    --      5.8179                 9.0804                16.2345

                      4                      5                      6
                      A                      A                      A
 Frequencies --    102.9545               141.9843               212.9407
 Red. masses --      1.2366                 6.5816                 1.2870
 Frc consts  --      0.0077                 0.0782                 0.0344
 IR Inten    --    203.0259                12.7949                21.9495

                      7                      8                      9
                      A                      A                      A
 Frequencies --    604.3602               609.3825               668.5989
 Red. masses --      4.5537                 3.9220                 1.3065
 Frc consts  --      0.9800                 0.8581                 0.3441
 IR Inten    --     14.6141                 0.0091                 0.1286

                     10                     11                     12
                      A                      A                      A
 Frequencies --    710.2094               759.4596               812.1392
 Red. masses --      1.1284                 1.3340                 1.1932
 Frc consts  --      0.3353                 0.4533                 0.4637
 IR Inten    --     91.1332                62.9181                 0.0146

                     13                     14                     15
                      A                      A                      A
 Frequencies --    844.6016               863.7672               880.0211
 Red. masses --      1.0265                 5.3564                 3.7725
 Frc consts  --      0.4314                 2.3546                 1.7213
 IR Inten    --     64.6389                 0.7574                 1.2932

                     16                     17                     18
                      A                      A                      A
 Frequencies --   1036.1129              1056.4864              1096.0701
 Red. masses --      1.3700                 1.3229                 1.3369
 Frc consts  --      0.8665                 0.8700                 0.9463
 IR Inten    --     20.2700                20.7907                 5.9490

                     19                     20                     21
                      A                      A                      A
 Frequencies --   1169.5119              1182.7860              1300.9976
 Red. masses --      5.5442                 1.2423                 1.4529
 Frc consts  --      4.4679                 1.0240                 1.4489
 IR Inten    --      0.0841                 1.8568                 1.5372

                     22                     23                     24
                      A                      A                      A
 Frequencies --   1431.4553              1497.6647              1498.1335
 Red. masses --      4.1979                 3.7007                 3.2916
 Frc consts  --      5.0680                 4.8906                 4.3527
 IR Inten    --      1.4600                 7.8515                 9.7188

                     25                     26                     27
                      A                      A                      A
 Frequencies --   1550.7519              1621.6461              3267.2864
 Red. masses --      2.4221                 1.0859                 1.0882
 Frc consts  --      3.4319                 1.6824                 6.8443
 IR Inten    --      1.3164                64.1537                 2.0928

                     28                     29                     30
                      A                      A                      A
 Frequencies --   3278.9281              3293.7673              3300.8330
 Red. masses --      1.0935                 1.1005                 1.1087
 Frc consts  --      6.9270                 7.0343                 7.1169
 IR Inten    --      4.1600                 3.5730                 0.0555

                     31                     32                     33
                      A                      A                      A
 Frequencies --   3565.9341              3799.4486              3931.2266
 Red. masses --      1.0852                 1.0453                 1.0817
 Frc consts  --      8.1303                 8.8908                 9.8498
 IR Inten    --    544.2011                13.9824                91.2580

 - Thermochemistry -
 -------------------
 Temperature   298.150 Kelvin.  Pressure   1.00000 Atm.
 Atom     1 has atomic number  6 and mass  12.00000

 Molecular mass:    85.05276 amu.
 Principal axes and moments of inertia in atomic units:
                           1         2         3
     Eigenvalues --   203.595091091.533801286.71300
           X            0.99999  -0.00509  -0.00002
           Y            0.00509   0.99999  -0.00000
           Z            0.00002   0.00000   1.00000
 This molecule is an asymmetric top.
 Rotational symmetry number  1.
 Rotational temperatures (Kelvin)      0.42542     0.07935     0.06731
 Rotational constants (GHZ):           8.86437     1.65340     1.40260
 Zero-point vibrational energy     276821.0 (Joules/Mol)
                                   66.16181 (Kcal/Mol)
 Warning -- explicit consideration of   8 degrees of freedom as
           vibrations may cause significant error
 Vibrational temperatures:     56.66    75.69   143.03   148.13   204.28
          (Kelvin)            306.37   869.54   876.77   961.96  1021.83
                             1092.69  1168.49  1215.19  1242.77  1266.15
                             1490.74  1520.05  1577.00  1682.67  1701.77
                             1871.85  2059.54  2154.81  2155.48  2231.19
                             2333.19  4700.90  4717.65  4739.00  4749.16
                             5130.58  5466.56  5656.16

 Zero-point correction=                           0.105436 (Hartree/Particle)
 Thermal correction to Energy=                    0.113675
 Thermal correction to Enthalpy=                  0.114620
 Thermal correction to Gibbs Free Energy=         0.071437
 Sum of electronic and zero-point Energies=           -285.728282
 Sum of electronic and thermal Energies=              -285.720042
 Sum of electronic and thermal Enthalpies=            -285.719098
 Sum of electronic and thermal Free Energies=         -285.762281

                     E (Thermal)             CV                S
                      KCal/Mol        Cal/Mol-Kelvin    Cal/Mol-Kelvin
 Total                   71.332             26.182             90.886
 Electronic               0.000              0.000              0.000
 Translational            0.889              2.981             39.235
 Rotational               0.889              2.981             27.150
 Vibrational             69.555             20.221             24.501
 Vibration     1          0.594              1.981              5.290
 Vibration     2          0.596              1.977              4.717
 Vibration     3          0.604              1.950              3.466
 Vibration     4          0.605              1.947              3.398
 Vibration     5          0.615              1.911              2.777
 Vibration     6          0.644              1.821              2.018
 Vibration     7          0.963              1.023              0.442
 Vibration     8          0.968              1.012              0.434

 ## DEPERTURBED TRANSITIONS MOMENTS ##

 Electric dipole : Fundamental Bands
 ------------------------------------------------------------------------

 ## AFTER VARIATIONAL CORRECTION

 Electric dipole : Fundamental Bands
 ------------------------------------------------------------------------

                           ! Non-Optimized Parameters !
 Normal termination of Gaussian 16 at Tue Apr  8 23:20:28 2025.
