 Gaussian 16, Revision C.01,
 Gaussian 16:  EM64L-G16RevC.01  3-Jul-2019

 ----------------------------------------------
 # MP2/aug-cc-pVDZ opt freq=(vibrot,anharmonic)
 ----------------------------------------------

 ----
 blah
 ----
 Symbolic Z-matrix:
 Charge =  0 Multiplicity = 1

 SCF Done:  E(RHF) =  -265.048443700     A.U. after   13 cycles
 E2 =    -0.9304560917D+00 EUMP2 =    -0.26597889979124D+03
 SCF Done:  E(RHF) =  -265.046040792     A.U. after   11 cycles
 E2 =    -0.9345338340D+00 EUMP2 =    -0.26598057462618D+03
 SCF Done:  E(RHF) =  -265.046540596     A.U. after   10 cycles
 E2 =    -0.9341442039D+00 EUMP2 =    -0.26598068479970D+03
 SCF Done:  E(RHF) =  -265.047262824     A.U. after   12 cycles
 E2 =    -0.9333769731D+00 EUMP2 =    -0.26598063979713D+03
 SCF Done:  E(RHF) =  -265.047303820     A.U. after   13 cycles
 E2 =    -0.9333944318D+00 EUMP2 =    -0.26598069825144D+03
 SCF Done:  E(RHF) =  -265.047387647     A.U. after   11 cycles
 E2 =    -0.9333820927D+00 EUMP2 =    -0.26598076973931D+03
 SCF Done:  E(RHF) =  -265.047420249     A.U. after    9 cycles
 E2 =    -0.9333530773D+00 EUMP2 =    -0.26598077332632D+03
 SCF Done:  E(RHF) =  -265.047428949     A.U. after    8 cycles
 E2 =    -0.9333449088D+00 EUMP2 =    -0.26598077385737D+03
 SCF Done:  E(RHF) =  -265.047440482     A.U. after    7 cycles
 E2 =    -0.9333336185D+00 EUMP2 =    -0.26598077410020D+03
 SCF Done:  E(RHF) =  -265.047447698     A.U. after    7 cycles
 E2 =    -0.9333264521D+00 EUMP2 =    -0.26598077415054D+03
 Optimization completed.
    -- Stationary point found.
 Normal termination of Gaussian 16 at Fri Apr  4 13:41:01 2025.

 ----------------------------------------------------------------------
 #N Geom=AllCheck Guess=TCheck SCRF=Check GenChk RMP2(FC)/Aug-CC-pVDZ F
 req
 ----------------------------------------------------------------------

 Structure from the checkpoint file:  "/scr/Gau-76954.chk"
 ----
 blah
 ----
 Charge =  0 Multiplicity = 1

                         Standard orientation:
 ---------------------------------------------------------------------
 Center     Atomic      Atomic             Coordinates (Angstroms)
 Number     Number       Type             X           Y           Z
 ---------------------------------------------------------------------
      1          6           0       -1.924292   -0.718425    0.000486
      2          6           0       -0.585007   -1.126047   -0.000420
      3          1           0       -2.790142   -1.379536    0.001058
      4          7           0        0.201134    0.004863   -0.000896
      5          1           0       -0.141761   -2.120115   -0.000655
      6          6           0       -0.594439    1.129116   -0.000419
      7          1           0        1.227534    0.008841   -0.001823
      8          6           0       -1.930259    0.710336    0.000488
      9          1           0       -0.159413    2.126810   -0.000656
     10          1           0       -2.801593    1.364193    0.001065
     11          7           0        3.228653    0.000955    0.000250
     12          1           0        3.633194    0.933110   -0.092259
     13          1           0        3.611730   -0.390765    0.861035
     14          1           0        3.615920   -0.553137   -0.764049
 ---------------------------------------------------------------------

 E2 =    -0.9333264567D+00 EUMP2 =    -0.26598077415521D+03
 E2 =    -0.9333264567D+00 EUMP2 =    -0.26598077415521D+03
 E2 =    -0.9333276459D+00 EUMP2 =    -0.26598077414473D+03
 E2 =    -0.9333276459D+00 EUMP2 =    -0.26598077414473D+03
 E2 =    -0.9333276677D+00 EUMP2 =    -0.26598077417679D+03
 E2 =    -0.9333276677D+00 EUMP2 =    -0.26598077417679D+03
 E2 =    -0.9333267135D+00 EUMP2 =    -0.26598077412499D+03
 E2 =    -0.9333267135D+00 EUMP2 =    -0.26598077412499D+03
 E2 =    -0.9333266032D+00 EUMP2 =    -0.26598077416553D+03
 E2 =    -0.9333266032D+00 EUMP2 =    -0.26598077416553D+03
 SCF Done:  E(RHF) =  -265.047097890     A.U. after    9 cycles
 E2 =    -0.9336033326D+00 EUMP2 =    -0.26598070122213D+03
 E2 =    -0.9336033326D+00 EUMP2 =    -0.26598070122213D+03
 SCF Done:  E(RHF) =  -265.047650158     A.U. after    9 cycles
 E2 =    -0.9330499581D+00 EUMP2 =    -0.26598070011641D+03
 E2 =    -0.9330499581D+00 EUMP2 =    -0.26598070011641D+03
 SCF Done:  E(RHF) =  -265.047790383     A.U. after    9 cycles
 E2 =    -0.9329031340D+00 EUMP2 =    -0.26598069351660D+03
 E2 =    -0.9329031340D+00 EUMP2 =    -0.26598069351660D+03
 SCF Done:  E(RHF) =  -265.046944878     A.U. after    9 cycles
 E2 =    -0.9337529665D+00 EUMP2 =    -0.26598069784475D+03
 E2 =    -0.9337529665D+00 EUMP2 =    -0.26598069784475D+03
 SCF Done:  E(RHF) =  -265.047785958     A.U. after    8 cycles
 E2 =    -0.9329053985D+00 EUMP2 =    -0.26598069135620D+03
 E2 =    -0.9329053985D+00 EUMP2 =    -0.26598069135620D+03
 SCF Done:  E(RHF) =  -265.046943849     A.U. after    8 cycles
 E2 =    -0.9337498970D+00 EUMP2 =    -0.26598069374628D+03
 E2 =    -0.9337498970D+00 EUMP2 =    -0.26598069374628D+03
 SCF Done:  E(RHF) =  -265.047360255     A.U. after    8 cycles
 E2 =    -0.9333259429D+00 EUMP2 =    -0.26598068619826D+03
 E2 =    -0.9333259429D+00 EUMP2 =    -0.26598068619826D+03
 SCF Done:  E(RHF) =  -265.047358660     A.U. after    8 cycles
 E2 =    -0.9333258465D+00 EUMP2 =    -0.26598068450642D+03
 E2 =    -0.9333258465D+00 EUMP2 =    -0.26598068450642D+03
 SCF Done:  E(RHF) =  -265.047359555     A.U. after    8 cycles
 E2 =    -0.9333259262D+00 EUMP2 =    -0.26598068548163D+03
 E2 =    -0.9333259262D+00 EUMP2 =    -0.26598068548163D+03
 SCF Done:  E(RHF) =  -265.047359244     A.U. after    8 cycles
 E2 =    -0.9333258586D+00 EUMP2 =    -0.26598068510305D+03
 E2 =    -0.9333258586D+00 EUMP2 =    -0.26598068510305D+03

 Alpha  occ. eigenvalues --  -15.58824 -15.58540 -11.24579 -11.24575 -11.20614
 Alpha  occ. eigenvalues --  -11.20514  -1.26489  -1.17462  -1.01864  -0.95445
 Alpha  occ. eigenvalues --   -0.76957  -0.74687  -0.71437  -0.65822  -0.65455
 Alpha  occ. eigenvalues --   -0.57542  -0.56193  -0.54015  -0.52725  -0.51040
 Alpha  occ. eigenvalues --   -0.46376  -0.32581  -0.27690
 Alpha virt. eigenvalues --    0.02258   0.04279   0.04944   0.05193   0.05921
 Alpha virt. eigenvalues --    0.06150   0.07687   0.08593   0.11569   0.13276
 Alpha virt. eigenvalues --    0.14134   0.14668   0.14878   0.14965   0.16033

 Mulliken charges:
               1
     1  C    0.390705
     2  C    0.437598
     3  H   -0.350145
     4  N   -0.107415
     5  H   -0.373804
     6  C    0.431915
     7  H   -0.042022
     8  C    0.388020
     9  H   -0.362174
    10  H   -0.349435
    11  N   -0.145160
    12  H    0.026088
    13  H    0.016865
    14  H    0.038964
 Sum of Mulliken charges =  -0.00000

 Dipole moment (field-independent basis, Debye):
    X=              4.7508    Y=             -0.0101    Z=             -0.0011  Tot=              4.7508
 Quadrupole moment (field-independent basis, Debye-Ang):
   XX=            -25.1436   YY=            -35.1288   ZZ=            -41.8518
   XY=             -0.0223   XZ=             -0.0229   YZ=              0.0125

  Exact polarizability:      85.683      -0.039      76.752      -0.071       0.055      52.630
 Approx polarizability:      70.091       0.002      69.867      -0.060       0.051      51.557

                      1                      2                      3
                      A                      A                      A
 Frequencies --      7.5110                50.1158                65.9765
 Red. masses --      1.0430                 2.8932                 2.8421
 Frc consts  --      0.0000                 0.0043                 0.0073
 IR Inten    --      0.0517                 1.4375                 3.3785

                      4                      5                      6
                      A                      A                      A
 Frequencies --    153.9306               249.9218               258.4935
 Red. masses --      4.5372                 1.2556                 1.1826
 Frc consts  --      0.0633                 0.0462                 0.0466
 IR Inten    --      4.7344                19.6154                31.6424

                      7                      8                      9
                      A                      A                      A
 Frequencies --    608.3737               610.9339               666.0714
 Red. masses --      3.9634                 4.8151                 1.3116
 Frc consts  --      0.8643                 1.0589                 0.3428
 IR Inten    --      0.0014                10.4535                 0.0012

                     10                     11                     12
                      A                      A                      A
 Frequencies --    711.1382               766.8046               808.1110
 Red. masses --      1.1322                 1.2962                 1.1867
 Frc consts  --      0.3373                 0.4490                 0.4566
 IR Inten    --    118.4781                21.2133                 0.0001

                     13                     14                     15
                      A                      A                      A
 Frequencies --    865.7803               877.2928               913.6490
 Red. masses --      5.4882                 3.7866                 1.0293
 Frc consts  --      2.4238                 1.7171                 0.5063
 IR Inten    --      0.6611                 3.0141                73.1957

                     16                     17                     18
                      A                      A                      A
 Frequencies --   1035.2510              1057.6821              1095.5424
 Red. masses --      1.3646                 1.3144                 1.3312
 Frc consts  --      0.8617                 0.8663                 0.9413
 IR Inten    --     20.3223                20.3954                10.0721

                     19                     20                     21
                      A                      A                      A
 Frequencies --   1115.6869              1168.7964              1201.6017
 Red. masses --      1.1831                 5.5651                 1.2780
 Frc consts  --      0.8676                 4.4792                 1.0872
 IR Inten    --    147.1267                 0.3215                 1.2927

                     22                     23                     24
                      A                      A                      A
 Frequencies --   1311.7339              1431.4579              1497.7203
 Red. masses --      1.5986                 4.2216                 3.1404
 Frc consts  --      1.6206                 5.0967                 4.1505
 IR Inten    --      1.6133                 1.2477                 7.2526

                     25                     26                     27
                      A                      A                      A
 Frequencies --   1507.1198              1566.3196              1645.9313
 Red. masses --      4.4280                 1.8795                 1.0646
 Frc consts  --      5.9259                 2.7168                 1.6993
 IR Inten    --      7.2684                 3.4328                15.0333

                     28                     29                     30
                      A                      A                      A
 Frequencies --   1646.7109              3265.1182              3276.1508
 Red. masses --      1.0626                 1.0878                 1.0930
 Frc consts  --      1.6977                 6.8329                 6.9121
 IR Inten    --     16.2438                 1.6171                 6.8182

                     31                     32                     33
                      A                      A                      A
 Frequencies --   3290.0086              3297.8420              3407.4407
 Red. masses --      1.1004                 1.1089                 1.0899
 Frc consts  --      7.0180                 7.1057                 7.4558
 IR Inten    --      5.5008                 0.0341               919.7880

                     34                     35                     36
                      A                      A                      A
 Frequencies --   3475.1285              3625.0512              3626.2841
 Red. masses --      1.0285                 1.0885                 1.0888
 Frc consts  --      7.3177                 8.4277                 8.4354
 IR Inten    --      8.7890                12.0183                12.5708

 - Thermochemistry -
 -------------------
 Temperature   298.150 Kelvin.  Pressure   1.00000 Atm.
 Atom     1 has atomic number  6 and mass  12.00000

 Molecular mass:    84.06875 amu.
 Principal axes and moments of inertia in atomic units:
                           1         2         3
     Eigenvalues --   208.299601078.012281276.71194
           X            1.00000  -0.00009   0.00001
           Y            0.00009   1.00000   0.00000
           Z           -0.00001  -0.00000   1.00000
 This molecule is an asymmetric top.
 Rotational symmetry number  1.
 Rotational temperatures (Kelvin)      0.41581     0.08035     0.06784
 Rotational constants (GHZ):           8.66416     1.67414     1.41359
 Zero-point vibrational energy     311978.2 (Joules/Mol)
                                   74.56458 (Kcal/Mol)
 Warning -- explicit consideration of   8 degrees of freedom as
           vibrations may cause significant error
 Vibrational temperatures:     10.81    72.11    94.93   221.47   359.58
          (Kelvin)            371.91   875.31   879.00   958.33  1023.17
                             1103.26  1162.69  1245.66  1262.23  1314.54
                             1489.50  1521.77  1576.24  1605.22  1681.64
                             1728.84  1887.29  2059.55  2154.89  2168.41
                             2253.58  2368.13  2369.25  4697.78  4713.65
                             4733.59  4744.86  4902.55  4999.93  5215.64
                             5217.41

 Zero-point correction=                           0.118826 (Hartree/Particle)
 Thermal correction to Energy=                    0.126883
 Thermal correction to Enthalpy=                  0.127827
 Thermal correction to Gibbs Free Energy=         0.083695
 Sum of electronic and zero-point Energies=           -265.861948
 Sum of electronic and thermal Energies=              -265.853891
 Sum of electronic and thermal Enthalpies=            -265.852947
 Sum of electronic and thermal Free Energies=         -265.897079

                     E (Thermal)             CV                S
                      KCal/Mol        Cal/Mol-Kelvin    Cal/Mol-Kelvin
 Total                   79.620             26.113             92.884
 Electronic               0.000              0.000              0.000
 Translational            0.889              2.981             39.201
 Rotational               0.889              2.981             27.152
 Vibrational             77.843             20.151             26.531
 Vibration     1          0.593              1.987              8.580
 Vibration     2          0.595              1.978              4.813
 Vibration     3          0.597              1.971              4.270
 Vibration     4          0.619              1.898              2.623
 Vibration     5          0.663              1.763              1.731
 Vibration     6          0.667              1.748              1.672
 Vibration     7          0.967              1.014              0.435
 Vibration     8          0.970              1.009              0.431

 ## DEPERTURBED TRANSITIONS MOMENTS ##

 Electric dipole : Fundamental Bands
 ------------------------------------------------------------------------

 ## AFTER VARIATIONAL CORRECTION

 Electric dipole : Fundamental Bands
 ------------------------------------------------------------------------

                           ! Non-Optimized Parameters !
 Normal termination of Gaussian 16 at Fri Apr  4 20:34:03 2025.
