 Gaussian 16, Revision C.01,
 Gaussian 16:  EM64L-G16RevC.01  3-Jul-2019

 ----------------------------------------------
 # MP2/aug-cc-pVDZ opt freq=(vibrot,anharmonic)
 ----------------------------------------------

 ----
 blah
 ----
 Symbolic Z-matrix:
 Charge =  0 Multiplicity = 1

 SCF Done:  E(RHF) =  -189.293425951     A.U. after   13 cycles
 E2 =    -0.6690832726D+00 EUMP2 =    -0.18996250922363D+03
 SCF Done:  E(RHF) =  -189.293808675     A.U. after   12 cycles
 E2 =    -0.6710099737D+00 EUMP2 =    -0.18996481864913D+03
 SCF Done:  E(RHF) =  -189.292729190     A.U. after   12 cycles
 E2 =    -0.6718567999D+00 EUMP2 =    -0.18996458599009D+03
 SCF Done:  E(RHF) =  -189.293949695     A.U. after   12 cycles
 E2 =    -0.6714274888D+00 EUMP2 =    -0.18996537718430D+03
 SCF Done:  E(RHF) =  -189.294454380     A.U. after   10 cycles
 E2 =    -0.6710054498D+00 EUMP2 =    -0.18996545983003D+03
 SCF Done:  E(RHF) =  -189.295042691     A.U. after   10 cycles
 E2 =    -0.6704715142D+00 EUMP2 =    -0.18996551420561D+03
 SCF Done:  E(RHF) =  -189.295097260     A.U. after    9 cycles
 E2 =    -0.6704208175D+00 EUMP2 =    -0.18996551807724D+03
 SCF Done:  E(RHF) =  -189.295149818     A.U. after    9 cycles
 E2 =    -0.6703702337D+00 EUMP2 =    -0.18996552005197D+03
 SCF Done:  E(RHF) =  -189.295123182     A.U. after    8 cycles
 E2 =    -0.6703972627D+00 EUMP2 =    -0.18996552044485D+03
 SCF Done:  E(RHF) =  -189.295105452     A.U. after    7 cycles
 E2 =    -0.6704151651D+00 EUMP2 =    -0.18996552061750D+03
 E2 =    -0.6704234774D+00 EUMP2 =    -0.18996552073841D+03
 E2 =    -0.6704294368D+00 EUMP2 =    -0.18996552088347D+03
 E2 =    -0.6704347340D+00 EUMP2 =    -0.18996552109698D+03
 E2 =    -0.6704429291D+00 EUMP2 =    -0.18996552152515D+03
 E2 =    -0.6704667971D+00 EUMP2 =    -0.18996552278360D+03
 E2 =    -0.6705730888D+00 EUMP2 =    -0.18996552258165D+03
 E2 =    -0.6705057559D+00 EUMP2 =    -0.18996552720187D+03
 E2 =    -0.6788702000D+00 EUMP2 =    -0.18994255936062D+03
 E2 =    -0.6708158100D+00 EUMP2 =    -0.18996557368480D+03
 E2 =    -0.6595909071D+00 EUMP2 =    -0.18990813872563D+03
 Optimization completed.
    -- Stationary point found.
 Normal termination of Gaussian 16 at Fri Apr  4 14:40:32 2025.

 ----------------------------------------------------------------------
 #N Geom=AllCheck Guess=TCheck SCRF=Check GenChk RMP2(FC)/Aug-CC-pVDZ F
 req
 ----------------------------------------------------------------------

 Structure from the checkpoint file:  "/scr/Gau-31321.chk"
 ----
 blah
 ----
 Charge =  0 Multiplicity = 1

                         Standard orientation:
 ---------------------------------------------------------------------
 Center     Atomic      Atomic             Coordinates (Angstroms)
 Number     Number       Type             X           Y           Z
 ---------------------------------------------------------------------
      1          6           0       -1.220487   -1.169214    0.031908
      2          6           0       -1.438848    0.167180   -0.074434
      3          1           0       -0.232266   -1.571941    0.267606
      4          1           0       -2.049276   -1.865418   -0.095769
      5          7           0       -0.499850    1.173748    0.150486
      6          1           0       -2.448633    0.530695   -0.295352
      7          1           0        0.478803    0.881829    0.088982
      8          1           0       -0.684459    2.044243   -0.334382
      9          7           0        2.350738   -0.145285   -0.037696
     10          1           0        2.478074   -0.656167    0.836643
     11          1           0        2.211730   -0.850526   -0.762481
     12          1           0        3.245820    0.300249   -0.239613
 ---------------------------------------------------------------------

 SCF Done:  E(RHF) =  -189.295845319     A.U. after    9 cycles
 E2 =    -0.6707082535D+00 EUMP2 =    -0.18996655357293D+03
 E2 =    -0.6707082535D+00 EUMP2 =    -0.18996655357293D+03
 SCF Done:  E(RHF) =  -189.296906447     A.U. after    9 cycles
 E2 =    -0.6696444476D+00 EUMP2 =    -0.18996655089476D+03
 E2 =    -0.6696444476D+00 EUMP2 =    -0.18996655089476D+03
 SCF Done:  E(RHF) =  -189.296698802     A.U. after    9 cycles
 E2 =    -0.6698517352D+00 EUMP2 =    -0.18996655053695D+03
 E2 =    -0.6698517352D+00 EUMP2 =    -0.18996655053695D+03
 SCF Done:  E(RHF) =  -189.296052192     A.U. after    9 cycles
 E2 =    -0.6705004183D+00 EUMP2 =    -0.18996655261063D+03
 E2 =    -0.6705004183D+00 EUMP2 =    -0.18996655261063D+03
 SCF Done:  E(RHF) =  -189.296367925     A.U. after    8 cycles
 E2 =    -0.6701762875D+00 EUMP2 =    -0.18996654421302D+03
 E2 =    -0.6701762875D+00 EUMP2 =    -0.18996654421302D+03
 SCF Done:  E(RHF) =  -189.296372238     A.U. after    8 cycles
 E2 =    -0.6701723067D+00 EUMP2 =    -0.18996654454467D+03
 E2 =    -0.6701723067D+00 EUMP2 =    -0.18996654454467D+03
 SCF Done:  E(RHF) =  -189.296356166     A.U. after    8 cycles
 E2 =    -0.6701887453D+00 EUMP2 =    -0.18996654491105D+03
 E2 =    -0.6701887453D+00 EUMP2 =    -0.18996654491105D+03
 SCF Done:  E(RHF) =  -189.296383568     A.U. after    8 cycles
 E2 =    -0.6701597756D+00 EUMP2 =    -0.18996654334403D+03
 E2 =    -0.6701597756D+00 EUMP2 =    -0.18996654334403D+03
 SCF Done:  E(RHF) =  -189.296527082     A.U. after    9 cycles
 E2 =    -0.6700135204D+00 EUMP2 =    -0.18996654060259D+03
 E2 =    -0.6700135204D+00 EUMP2 =    -0.18996654060259D+03
 SCF Done:  E(RHF) =  -189.296207433     A.U. after    9 cycles
 E2 =    -0.6703365019D+00 EUMP2 =    -0.18996654393533D+03
 E2 =    -0.6703365019D+00 EUMP2 =    -0.18996654393533D+03

 Alpha  occ. eigenvalues --  -15.57045 -15.55105 -11.26959 -11.19920  -1.18882
 Alpha  occ. eigenvalues --   -1.15861  -0.97450  -0.77231  -0.67777  -0.64202
 Alpha  occ. eigenvalues --   -0.64120  -0.61880  -0.55173  -0.50938  -0.47356
 Alpha  occ. eigenvalues --   -0.44637  -0.29803
 Alpha virt. eigenvalues --    0.03086   0.04479   0.04983   0.05975   0.06515
 Alpha virt. eigenvalues --    0.06792   0.09283   0.09465   0.12571   0.13520
 Alpha virt. eigenvalues --    0.14664   0.16134   0.16599   0.17098   0.18266

 Mulliken charges:
               1
     1  C    0.623761
     2  C    0.677818
     3  H   -0.367507
     4  H   -0.321001
     5  N   -0.166068
     6  H   -0.369368
     7  H   -0.035210
     8  H    0.015308
     9  N   -0.164693
    10  H    0.034180
    11  H    0.045247
    12  H    0.027534
 Sum of Mulliken charges =  -0.00000

 Dipole moment (field-independent basis, Debye):
    X=              2.4112    Y=              0.1717    Z=             -0.9510  Tot=              2.5976
 Quadrupole moment (field-independent basis, Debye-Ang):
   XX=            -20.2812   YY=            -26.0433   ZZ=            -30.0311
   XY=             -2.4867   XZ=              1.2390   YZ=             -2.2296

  Exact polarizability:      54.267       1.429      64.530       0.622       0.150      42.995
 Approx polarizability:      40.224      -0.102      51.680       0.450      -0.491      38.676

                      1                      2                      3
                      A                      A                      A
 Frequencies --     47.5123                66.4268                85.3342
 Red. masses --      1.8036                 1.2335                 1.3677
 Frc consts  --      0.0024                 0.0032                 0.0059
 IR Inten    --      7.2475                 2.7764                13.0429

                      4                      5                      6
                      A                      A                      A
 Frequencies --    152.8748               209.5091               225.7267
 Red. masses --      3.8877                 1.2527                 1.2955
 Frc consts  --      0.0535                 0.0324                 0.0389
 IR Inten    --      4.5679                41.8687                14.6252

                      7                      8                      9
                      A                      A                      A
 Frequencies --    415.0149               471.7347               675.3747
 Red. masses --      1.0996                 2.0638                 1.2406
 Frc consts  --      0.1116                 0.2706                 0.3334
 IR Inten    --    113.5995                 6.2670                80.9550

                     10                     11                     12
                      A                      A                      A
 Frequencies --    754.0636               788.6434               961.4851
 Red. masses --      1.3604                 1.4173                 1.3627
 Frc consts  --      0.4558                 0.5194                 0.7422
 IR Inten    --    106.0059                64.5500                 2.2939

                     13                     14                     15
                      A                      A                      A
 Frequencies --    996.9290              1090.7600              1097.5749
 Red. masses --      1.1471                 1.6639                 1.1857
 Frc consts  --      0.6717                 1.1664                 0.8416
 IR Inten    --     29.0593                16.7768               152.5391

                     16                     17                     18
                      A                      A                      A
 Frequencies --   1313.5842              1330.7416              1441.6305
 Red. masses --      1.7831                 1.2631                 1.1848
 Frc consts  --      1.8128                 1.3179                 1.4507
 IR Inten    --     17.9366                39.4215                 2.1206

                     19                     20                     21
                      A                      A                      A
 Frequencies --   1645.3404              1649.9049              1654.6930
 Red. masses --      1.1347                 1.0696                 1.2603
 Frc consts  --      1.8098                 1.7155                 2.0331
 IR Inten    --     11.7972                22.8930                18.7386

                     22                     23                     24
                      A                      A                      A
 Frequencies --   1707.9175              3190.7605              3202.7443
 Red. masses --      2.4685                 1.0588                 1.0925
 Frc consts  --      4.2424                 6.3512                 6.6028
 IR Inten    --    149.1293                13.9575                 9.5184

                     25                     26                     27
                      A                      A                      A
 Frequencies --   3302.6943              3458.2951              3472.6196
 Red. masses --      1.1161                 1.0565                 1.0300
 Frc consts  --      7.1731                 7.4448                 7.3179
 IR Inten    --     14.2666               230.5765                29.2163

                     28                     29                     30
                      A                      A                      A
 Frequencies --   3622.5527              3627.6458              3665.1909
 Red. masses --      1.0889                 1.0887                 1.0898
 Frc consts  --      8.4189                 8.4415                 8.6256
 IR Inten    --      9.3606                 7.8496                57.3352

 - Thermochemistry -
 -------------------
 Temperature   298.150 Kelvin.  Pressure   1.00000 Atm.
 Atom     1 has atomic number  6 and mass  12.00000

 Molecular mass:    60.06875 amu.
 Principal axes and moments of inertia in atomic units:
                           1         2         3
     Eigenvalues --   181.68706 565.13819 732.34626
           X            0.99997  -0.00612   0.00467
           Y            0.00622   0.99977  -0.02055
           Z           -0.00454   0.02057   0.99978
 This molecule is an asymmetric top.
 Rotational symmetry number  1.
 Rotational temperatures (Kelvin)      0.47672     0.15326     0.11827
 Rotational constants (GHZ):           9.93324     3.19345     2.46433
 Zero-point vibrational energy     277086.7 (Joules/Mol)
                                   66.22531 (Kcal/Mol)
 Warning -- explicit consideration of   8 degrees of freedom as
           vibrations may cause significant error
 Vibrational temperatures:     68.36    95.57   122.78   219.95   301.44
          (Kelvin)            324.77   597.11   678.72   971.71  1084.93
                             1134.68  1383.36  1434.36  1569.36  1579.17
                             1889.95  1914.64  2074.18  2367.28  2373.85
                             2380.73  2457.31  4590.79  4608.03  4751.84
                             4975.72  4996.33  5212.05  5219.37  5273.39

 Zero-point correction=                           0.105537 (Hartree/Particle)
 Thermal correction to Energy=                    0.113485
 Thermal correction to Enthalpy=                  0.114429
 Thermal correction to Gibbs Free Energy=         0.073368
 Sum of electronic and zero-point Energies=           -189.861096
 Sum of electronic and thermal Energies=              -189.853148
 Sum of electronic and thermal Enthalpies=            -189.852204
 Sum of electronic and thermal Free Energies=         -189.893265

                     E (Thermal)             CV                S
                      KCal/Mol        Cal/Mol-Kelvin    Cal/Mol-Kelvin
 Total                   71.213             24.330             86.420
 Electronic               0.000              0.000              0.000
 Translational            0.889              2.981             38.199
 Rotational               0.889              2.981             25.822
 Vibrational             69.436             18.369             22.399
 Vibration     1          0.595              1.979              4.918
 Vibration     2          0.598              1.970              4.257
 Vibration     3          0.601              1.959              3.764
 Vibration     4          0.619              1.899              2.636
 Vibration     5          0.642              1.826              2.048
 Vibration     6          0.650              1.802              1.913
 Vibration     7          0.778              1.438              0.909
 Vibration     8          0.829              1.313              0.733

 ## DEPERTURBED TRANSITIONS MOMENTS ##

 Electric dipole : Fundamental Bands
 ------------------------------------------------------------------------

 ## AFTER VARIATIONAL CORRECTION

 Electric dipole : Fundamental Bands
 ------------------------------------------------------------------------

                           ! Non-Optimized Parameters !
 Normal termination of Gaussian 16 at Fri Apr  4 15:59:13 2025.
