 Gaussian 16, Revision C.01,
 Gaussian 16:  EM64L-G16RevC.01  3-Jul-2019

 ----------------------------------------------
 # MP2/aug-cc-pVDZ opt freq=(vibrot,anharmonic)
 ----------------------------------------------

 ----
 blah
 ----
 Symbolic Z-matrix:
 Charge =  0 Multiplicity = 1

 SCF Done:  E(RHF) =  -189.293172692     A.U. after   13 cycles
 E2 =    -0.6682472495D+00 EUMP2 =    -0.18996141994141D+03
 SCF Done:  E(RHF) =  -189.294928415     A.U. after   12 cycles
 E2 =    -0.6702879496D+00 EUMP2 =    -0.18996521636450D+03
 SCF Done:  E(RHF) =  -189.295105315     A.U. after   12 cycles
 E2 =    -0.6705503964D+00 EUMP2 =    -0.18996565571124D+03
 SCF Done:  E(RHF) =  -189.295346056     A.U. after   12 cycles
 E2 =    -0.6704691047D+00 EUMP2 =    -0.18996581516078D+03
 SCF Done:  E(RHF) =  -189.296195607     A.U. after   11 cycles
 E2 =    -0.6698659426D+00 EUMP2 =    -0.18996606155005D+03
 SCF Done:  E(RHF) =  -189.297021193     A.U. after   12 cycles
 E2 =    -0.6691792962D+00 EUMP2 =    -0.18996620048876D+03
 SCF Done:  E(RHF) =  -189.297082995     A.U. after   10 cycles
 E2 =    -0.6691659863D+00 EUMP2 =    -0.18996624898149D+03
 SCF Done:  E(RHF) =  -189.297158094     A.U. after   10 cycles
 E2 =    -0.6691212638D+00 EUMP2 =    -0.18996627935766D+03
 SCF Done:  E(RHF) =  -189.297275831     A.U. after   10 cycles
 E2 =    -0.6690153457D+00 EUMP2 =    -0.18996629117711D+03
 SCF Done:  E(RHF) =  -189.297301543     A.U. after    9 cycles
 E2 =    -0.6690047452D+00 EUMP2 =    -0.18996630628799D+03
 E2 =    -0.6690370506D+00 EUMP2 =    -0.18996635870386D+03
 E2 =    -0.6691032258D+00 EUMP2 =    -0.18996637867119D+03
 E2 =    -0.6692380713D+00 EUMP2 =    -0.18996640944708D+03
 E2 =    -0.6693077614D+00 EUMP2 =    -0.18996642341459D+03
 E2 =    -0.6692931928D+00 EUMP2 =    -0.18996642675187D+03
 E2 =    -0.6692888805D+00 EUMP2 =    -0.18996642749932D+03
 E2 =    -0.6692822972D+00 EUMP2 =    -0.18996642863363D+03
 E2 =    -0.6692743824D+00 EUMP2 =    -0.18996642996545D+03
 E2 =    -0.6692651062D+00 EUMP2 =    -0.18996643132325D+03
 E2 =    -0.6692593696D+00 EUMP2 =    -0.18996643354221D+03
 Optimization completed on the basis of negligible forces.
    -- Stationary point found.
 Normal termination of Gaussian 16 at Wed Apr  9 10:19:27 2025.

 ----------------------------------------------------------------------
 #N Geom=AllCheck Guess=TCheck SCRF=Check GenChk RMP2(FC)/Aug-CC-pVDZ F
 req
 ----------------------------------------------------------------------

 Structure from the checkpoint file:  "/scr/Gau-57557.chk"
 ----
 blah
 ----
 Charge =  0 Multiplicity = 1

                         Standard orientation:
 ---------------------------------------------------------------------
 Center     Atomic      Atomic             Coordinates (Angstroms)
 Number     Number       Type             X           Y           Z
 ---------------------------------------------------------------------
      1          6           0       -2.405346   -0.270622    0.168739
      2          6           0       -1.088190   -0.300278   -0.157905
      3          1           0       -2.895472    0.650099    0.498063
      4          1           0       -3.004962   -1.177356    0.089808
      5          7           0       -0.212211    0.784408   -0.196617
      6          1           0       -0.634922   -1.240953   -0.490406
      7          1           0       -0.528696    1.607368    0.307184
      8          1           0        0.767160    0.554839   -0.019563
      9          7           0        2.765323   -0.202174    0.096082
     10          1           0        3.093221   -0.360418   -0.857101
     11          1           0        3.450453    0.414525    0.533171
     12          1           0        2.842647   -1.098340    0.577590
 ---------------------------------------------------------------------

 SCF Done:  E(RHF) =  -189.296465932     A.U. after    9 cycles
 E2 =    -0.6699094514D+00 EUMP2 =    -0.18996637538346D+03
 E2 =    -0.6699094514D+00 EUMP2 =    -0.18996637538346D+03
 SCF Done:  E(RHF) =  -189.297703942     A.U. after    9 cycles
 E2 =    -0.6686694213D+00 EUMP2 =    -0.18996637336347D+03
 E2 =    -0.6686694213D+00 EUMP2 =    -0.18996637336347D+03
 SCF Done:  E(RHF) =  -189.297189422     A.U. after    9 cycles
 E2 =    -0.6691843224D+00 EUMP2 =    -0.18996637374394D+03
 E2 =    -0.6691843224D+00 EUMP2 =    -0.18996637374394D+03
 SCF Done:  E(RHF) =  -189.296980236     A.U. after    9 cycles
 E2 =    -0.6693940959D+00 EUMP2 =    -0.18996637433195D+03
 E2 =    -0.6693940959D+00 EUMP2 =    -0.18996637433195D+03
 SCF Done:  E(RHF) =  -189.297074212     A.U. after    8 cycles
 E2 =    -0.6692919462D+00 EUMP2 =    -0.18996636615844D+03
 E2 =    -0.6692919462D+00 EUMP2 =    -0.18996636615844D+03
 SCF Done:  E(RHF) =  -189.297084688     A.U. after    8 cycles
 E2 =    -0.6692828560D+00 EUMP2 =    -0.18996636754420D+03
 E2 =    -0.6692828560D+00 EUMP2 =    -0.18996636754420D+03
 SCF Done:  E(RHF) =  -189.297079761     A.U. after    8 cycles
 E2 =    -0.6692875875D+00 EUMP2 =    -0.18996636734803D+03
 E2 =    -0.6692875875D+00 EUMP2 =    -0.18996636734803D+03
 SCF Done:  E(RHF) =  -189.297079104     A.U. after    8 cycles
 E2 =    -0.6692871945D+00 EUMP2 =    -0.18996636629836D+03
 E2 =    -0.6692871945D+00 EUMP2 =    -0.18996636629836D+03
 SCF Done:  E(RHF) =  -189.296948639     A.U. after    9 cycles
 E2 =    -0.6694187154D+00 EUMP2 =    -0.18996636735490D+03
 E2 =    -0.6694187154D+00 EUMP2 =    -0.18996636735490D+03
 SCF Done:  E(RHF) =  -189.297206842     A.U. after    9 cycles
 E2 =    -0.6691578070D+00 EUMP2 =    -0.18996636464932D+03
 E2 =    -0.6691578070D+00 EUMP2 =    -0.18996636464932D+03

 Alpha  occ. eigenvalues --  -15.57548 -15.54738 -11.26671 -11.19707  -1.18784
 Alpha  occ. eigenvalues --   -1.16355  -0.97261  -0.77130  -0.67636  -0.64643
 Alpha  occ. eigenvalues --   -0.64616  -0.61594  -0.55362  -0.50250  -0.47046
 Alpha  occ. eigenvalues --   -0.45357  -0.29623
 Alpha virt. eigenvalues --    0.02678   0.04678   0.05150   0.05595   0.06341
 Alpha virt. eigenvalues --    0.06813   0.08576   0.09860   0.12527   0.13746
 Alpha virt. eigenvalues --    0.14645   0.15434   0.16855   0.17699   0.18191

 Mulliken charges:
               1
     1  C    0.595716
     2  C    0.703458
     3  H   -0.353019
     4  H   -0.302253
     5  N   -0.151704
     6  H   -0.409877
     7  H   -0.052629
     8  H    0.015509
     9  N   -0.135590
    10  H    0.024124
    11  H    0.028440
    12  H    0.037825
 Sum of Mulliken charges =  -0.00000

 Dipole moment (field-independent basis, Debye):
    X=              3.6105    Y=             -0.3019    Z=              0.7366  Tot=              3.6972
 Quadrupole moment (field-independent basis, Debye-Ang):
   XX=            -20.8501   YY=            -24.8101   ZZ=            -29.8986
   XY=             -1.7587   XZ=             -0.4162   YZ=              2.4116

  Exact polarizability:      72.028       3.786      48.336      -3.896      -0.334      43.929
 Approx polarizability:      50.569       1.484      40.505      -2.775       0.043      39.092

                      1                      2                      3
                      A                      A                      A
 Frequencies --     22.2517                42.5913                68.7559
 Red. masses --      1.1137                 2.4765                 1.6999
 Frc consts  --      0.0003                 0.0026                 0.0047
 IR Inten    --      0.6487                 2.4762                 6.7289

                      4                      5                      6
                      A                      A                      A
 Frequencies --    149.4537               185.2547               211.0855
 Red. masses --      3.7333                 1.2583                 1.1900
 Frc consts  --      0.0491                 0.0254                 0.0312
 IR Inten    --      5.1334                24.6267                37.8618

                      7                      8                      9
                      A                      A                      A
 Frequencies --    458.9505               488.1514               699.8306
 Red. masses --      1.8339                 1.1043                 1.5847
 Frc consts  --      0.2276                 0.1550                 0.4573
 IR Inten    --      8.7806                50.8744                 6.0525

                     10                     11                     12
                      A                      A                      A
 Frequencies --    710.3581               794.8884               958.2926
 Red. masses --      1.1791                 1.4058                 1.3745
 Frc consts  --      0.3505                 0.5233                 0.7437
 IR Inten    --    251.5140                65.8343                 5.3914

                     13                     14                     15
                      A                      A                      A
 Frequencies --    992.4479              1097.1044              1109.7477
 Red. masses --      1.1360                 1.1816                 1.7064
 Frc consts  --      0.6593                 0.8379                 1.2381
 IR Inten    --     30.9195               150.3609                11.0929

                     16                     17                     18
                      A                      A                      A
 Frequencies --   1296.7499              1324.4016              1447.8915
 Red. masses --      1.9007                 1.1914                 1.1856
 Frc consts  --      1.8831                 1.2313                 1.4643
 IR Inten    --     41.0192                23.1997                 3.8017

                     19                     20                     21
                      A                      A                      A
 Frequencies --   1644.9676              1647.5296              1662.9926
 Red. masses --      1.0766                 1.0638                 1.1985
 Frc consts  --      1.7165                 1.7012                 1.9528
 IR Inten    --     21.1910                15.5294                16.9330

                     22                     23                     24
                      A                      A                      A
 Frequencies --   1702.0305              3185.0632              3201.1460
 Red. masses --      3.2937                 1.0591                 1.0928
 Frc consts  --      5.6217                 6.3303                 6.5978
 IR Inten    --    164.1114                 8.1145                 7.5512

                     25                     26                     27
                      A                      A                      A
 Frequencies --   3299.4014              3470.9980              3478.2054
 Red. masses --      1.1156                 1.0460                 1.0375
 Frc consts  --      7.1553                 7.4246                 7.3952
 IR Inten    --     11.4931               216.8746               145.9030

                     28                     29                     30
                      A                      A                      A
 Frequencies --   3627.6920              3628.2686              3644.8482
 Red. masses --      1.0887                 1.0887                 1.0930
 Frc consts  --      8.4417                 8.4440                 8.5549
 IR Inten    --      9.9545                 9.2888                80.1568

 - Thermochemistry -
 -------------------
 Temperature   298.150 Kelvin.  Pressure   1.00000 Atm.
 Atom     1 has atomic number  6 and mass  12.00000

 Molecular mass:    60.06875 amu.
 Principal axes and moments of inertia in atomic units:
                           1         2         3
     Eigenvalues --    79.31338 867.72621 924.38670
           X            0.99999  -0.00342  -0.00325
           Y            0.00366   0.99715   0.07533
           Z            0.00299  -0.07534   0.99715
 This molecule is an asymmetric top.
 Rotational symmetry number  1.
 Rotational temperatures (Kelvin)      1.09205     0.09982     0.09370
 Rotational constants (GHZ):          22.75456     2.07985     1.95237
 Zero-point vibrational energy     276644.5 (Joules/Mol)
                                   66.11963 (Kcal/Mol)
 Warning -- explicit consideration of   8 degrees of freedom as
           vibrations may cause significant error
 Vibrational temperatures:     32.02    61.28    98.92   215.03   266.54
          (Kelvin)            303.71   660.33   702.34  1006.90  1022.05
                             1143.67  1378.77  1427.91  1578.49  1596.68
                             1865.73  1905.52  2083.19  2366.74  2370.43
                             2392.68  2448.84  4582.60  4605.74  4747.10
                             4993.99  5004.36  5219.44  5220.27  5244.12

 Zero-point correction=                           0.105368 (Hartree/Particle)
 Thermal correction to Energy=                    0.113472
 Thermal correction to Enthalpy=                  0.114417
 Thermal correction to Gibbs Free Energy=         0.071997
 Sum of electronic and zero-point Energies=           -189.861087
 Sum of electronic and thermal Energies=              -189.852983
 Sum of electronic and thermal Enthalpies=            -189.852039
 Sum of electronic and thermal Free Energies=         -189.894459

                     E (Thermal)             CV                S
                      KCal/Mol        Cal/Mol-Kelvin    Cal/Mol-Kelvin
 Total                   71.205             24.308             89.279
 Electronic               0.000              0.000              0.000
 Translational            0.889              2.981             38.199
 Rotational               0.889              2.981             25.656
 Vibrational             69.428             18.346             25.424
 Vibration     1          0.593              1.985              6.422
 Vibration     2          0.595              1.980              5.135
 Vibration     3          0.598              1.969              4.189
 Vibration     4          0.618              1.903              2.679
 Vibration     5          0.631              1.860              2.275
 Vibration     6          0.643              1.824              2.034
 Vibration     7          0.817              1.341              0.769
 Vibration     8          0.844              1.276              0.688

 ## DEPERTURBED TRANSITIONS MOMENTS ##

 Electric dipole : Fundamental Bands
 ------------------------------------------------------------------------

 ## AFTER VARIATIONAL CORRECTION

 Electric dipole : Fundamental Bands
 ------------------------------------------------------------------------

 Optimization completed on the basis of negligible forces.
    -- Stationary point found.
 Normal termination of Gaussian 16 at Wed Apr  9 12:14:58 2025.
