 Gaussian 16, Revision A.03,
 Gaussian 16:  ES64L-G16RevA.03 25-Dec-2016

 -------------------------------------------------------
 # MP2/6-31G** Opt=(Recalc=50) Freq=(vibrot, anharmonic)
 -------------------------------------------------------

 -----
 H,H,H
 -----
 Symbolic Z-matrix:
 Charge =  0 Multiplicity = 1

 SCF Done:  E(RHF) =  -265.638078628     A.U. after   15 cycles
 E2 =    -0.7562800503D+00 EUMP2 =    -0.26639435867823D+03
 E2 =    -0.7562800503D+00 EUMP2 =    -0.26639435867823D+03
 SCF Done:  E(RHF) =  -265.639329336     A.U. after   13 cycles
 E2 =    -0.7585228149D+00 EUMP2 =    -0.26639785215073D+03
 SCF Done:  E(RHF) =  -265.638811677     A.U. after   10 cycles
 E2 =    -0.7590805603D+00 EUMP2 =    -0.26639789223772D+03
 SCF Done:  E(RHF) =  -265.638743343     A.U. after   10 cycles
 E2 =    -0.7591500030D+00 EUMP2 =    -0.26639789334619D+03
 Optimization completed.
    -- Stationary point found.
 Normal termination of Gaussian 16 at Tue Oct 27 13:16:09 2020.

 ----------------------------------------------------------------------
 #N Geom=AllCheck Guess=TCheck SCRF=Check GenChk RMP2(FC)/6-31G(d,p) Fr
 eq
 ----------------------------------------------------------------------

 Structure from the checkpoint file:  "1.chk"
 -----
 H,H,H
 -----
 Charge =  0 Multiplicity = 1

                         Standard orientation:
 ---------------------------------------------------------------------
 Center     Atomic      Atomic             Coordinates (Angstroms)
 Number     Number       Type             X           Y           Z
 ---------------------------------------------------------------------
      1          6           0       -1.184401    0.428800   -0.000000
      2          6           0        0.000000    1.103874    0.000000
      3          6           0        1.237497    0.366813    0.000000
      4          8           0       -1.295530   -0.895922   -0.000000
      5          8           0        1.296566   -0.881073    0.000000
      6          1           0        2.173559    0.942196    0.000000
      7          1           0       -2.142884    0.934194   -0.000000
      8          1           0        0.005084    2.182031    0.000000
      9          1           0       -0.362627   -1.239388   -0.000000
 ---------------------------------------------------------------------

 SCF Done:  E(RHF) =  -265.638743343     A.U. after    1 cycles
 E2 =    -0.7591500012D+00 EUMP2 =    -0.26639789334443D+03
 E2 =    -0.7591500012D+00 EUMP2 =    -0.26639789334443D+03
 SCF Done:  E(RHF) =  -265.638782185     A.U. after    9 cycles
 E2 =    -0.7591105367D+00 EUMP2 =    -0.26639789272175D+03
 E2 =    -0.7591105367D+00 EUMP2 =    -0.26639789272175D+03
 SCF Done:  E(RHF) =  -265.638703141     A.U. after    9 cycles
 E2 =    -0.7591897892D+00 EUMP2 =    -0.26639789293049D+03
 E2 =    -0.7591897892D+00 EUMP2 =    -0.26639789293049D+03
 SCF Done:  E(RHF) =  -265.638742329     A.U. after   10 cycles
 E2 =    -0.7591504952D+00 EUMP2 =    -0.26639789282388D+03
 E2 =    -0.7591504952D+00 EUMP2 =    -0.26639789282388D+03
 SCF Done:  E(RHF) =  -265.638742329     A.U. after   10 cycles
 E2 =    -0.7591504952D+00 EUMP2 =    -0.26639789282388D+03
 E2 =    -0.7591504952D+00 EUMP2 =    -0.26639789282388D+03
 SCF Done:  E(RHF) =  -265.638741764     A.U. after   10 cycles
 E2 =    -0.7591506378D+00 EUMP2 =    -0.26639789240212D+03
 E2 =    -0.7591506378D+00 EUMP2 =    -0.26639789240212D+03
 E2 =    -0.7591506378D+00 EUMP2 =    -0.26639789240212D+03
 E2 =    -0.7591506378D+00 EUMP2 =    -0.26639789240212D+03
 E2 =    -0.7591392354D+00 EUMP2 =    -0.26639789161496D+03
 SCF Done:  E(RHF) =  -265.638459157     A.U. after   11 cycles
 E2 =    -0.7594139232D+00 EUMP2 =    -0.26639787307986D+03
 E2 =    -0.7594139232D+00 EUMP2 =    -0.26639787307986D+03
 SCF Done:  E(RHF) =  -265.638984747     A.U. after   11 cycles
 E2 =    -0.7588880950D+00 EUMP2 =    -0.26639787284204D+03
 E2 =    -0.7588880950D+00 EUMP2 =    -0.26639787284204D+03
 SCF Done:  E(RHF) =  -265.638770191     A.U. after   10 cycles
 E2 =    -0.7590573707D+00 EUMP2 =    -0.26639782756157D+03
 E2 =    -0.7590573707D+00 EUMP2 =    -0.26639782756157D+03
 SCF Done:  E(RHF) =  -265.638583925     A.U. after   10 cycles
 E2 =    -0.7592462699D+00 EUMP2 =    -0.26639783019465D+03
 E2 =    -0.7592462699D+00 EUMP2 =    -0.26639783019465D+03
 SCF Done:  E(RHF) =  -265.638907097     A.U. after   11 cycles
 E2 =    -0.7589125148D+00 EUMP2 =    -0.26639781961166D+03
 E2 =    -0.7589125148D+00 EUMP2 =    -0.26639781961166D+03
 SCF Done:  E(RHF) =  -265.638433417     A.U. after   11 cycles
 E2 =    -0.7593898869D+00 EUMP2 =    -0.26639782330430D+03
 E2 =    -0.7593898869D+00 EUMP2 =    -0.26639782330430D+03
 SCF Done:  E(RHF) =  -265.639006242     A.U. after   10 cycles
 E2 =    -0.7588102989D+00 EUMP2 =    -0.26639781654081D+03
 E2 =    -0.7588102989D+00 EUMP2 =    -0.26639781654081D+03
 SCF Done:  E(RHF) =  -265.638330552     A.U. after   10 cycles
 E2 =    -0.7594905089D+00 EUMP2 =    -0.26639782106056D+03
 E2 =    -0.7594905089D+00 EUMP2 =    -0.26639782106056D+03
 SCF Done:  E(RHF) =  -265.638463136     A.U. after   10 cycles
 E2 =    -0.7593565565D+00 EUMP2 =    -0.26639781969229D+03
 E2 =    -0.7593565565D+00 EUMP2 =    -0.26639781969229D+03
 SCF Done:  E(RHF) =  -265.638873341     A.U. after   10 cycles
 E2 =    -0.7589443232D+00 EUMP2 =    -0.26639781766417D+03
 E2 =    -0.7589443232D+00 EUMP2 =    -0.26639781766417D+03

 Alpha  occ. eigenvalues --  -20.60928 -20.56488 -11.34914 -11.34784 -11.23419
 Alpha  occ. eigenvalues --   -1.43170  -1.37502  -1.06534  -0.90077  -0.82011
 Alpha  occ. eigenvalues --   -0.71315  -0.66979  -0.63897  -0.61168  -0.59666
 Alpha  occ. eigenvalues --   -0.55642  -0.52994  -0.43156  -0.36180
 Alpha virt. eigenvalues --    0.08983   0.23858   0.25533   0.28477   0.30583
 Alpha virt. eigenvalues --    0.31206   0.39710   0.46788   0.55176   0.58073
 Alpha virt. eigenvalues --    0.72655   0.72668   0.76809   0.79054   0.80827

 Mulliken charges:
               1
     1  C    0.213832
     2  C   -0.273708
     3  C    0.266486
     4  O   -0.503483
     5  O   -0.470127
     6  H    0.107614
     7  H    0.145982
     8  H    0.136259
     9  H    0.377146
 Sum of Mulliken charges =  -0.00000

 Dipole moment (field-independent basis, Debye):
    X=             -0.3493    Y=              2.5061    Z=             -0.0000  Tot=              2.5304
 Quadrupole moment (field-independent basis, Debye-Ang):
   XX=            -29.2466   YY=            -28.3345   ZZ=            -29.9392
   XY=              0.3993   XZ=              0.0000   YZ=              0.0000

  Exact polarizability:  52.462   2.121  41.830  -0.000  -0.000  15.906
 Approx polarizability:  40.576   2.093  37.976  -0.000  -0.000  17.038

                      1                      2                      3
                     A'                     A"                     A"
 Frequencies --    276.2302               276.9763               373.1802
 Red. masses --      7.0069                 2.7412                 2.5233
 Frc consts  --      0.3150                 0.1239                 0.2070
 IR Inten    --      4.9437                 4.9057                 5.1666

                      4                      5                      6
                     A'                     A"                     A"
 Frequencies --    515.8618               780.3675               894.8799
 Red. masses --      6.6861                 1.1340                 1.4627
 Frc consts  --      1.0483                 0.4069                 0.6902
 IR Inten    --     19.2934                38.1218                66.8898

                      7                      8                      9
                     A'                     A"                     A'
 Frequencies --    896.4876               998.5677              1024.9581
 Red. masses --      4.8932                 1.2410                 3.4417
 Frc consts  --      2.3170                 0.7291                 2.1303
 IR Inten    --      7.7475                39.3531                60.2067

                     10                     11                     12
                     A"                     A'                     A'
 Frequencies --   1049.6870              1136.2144              1309.9193
 Red. masses --      1.4164                 1.4753                 1.3066
 Frc consts  --      0.9195                 1.1221                 1.3210
 IR Inten    --     12.8795                16.5562               147.9524

                     13                     14                     15
                     A'                     A'                     A'
 Frequencies --   1439.3449              1442.1038              1510.8982
 Red. masses --      1.4070                 1.6340                 2.0166
 Frc consts  --      1.7174                 2.0022                 2.7123
 IR Inten    --     10.3392                55.4257                46.1277

                     16                     17                     18
                     A'                     A'                     A'
 Frequencies --   1683.2276              1736.7068              3088.2750
 Red. masses --      3.1203                 4.8814                 1.0884
 Frc consts  --      5.2087                 8.6746                 6.1161
 IR Inten    --    251.4086               182.4368               108.1389

                     19                     20                     21
                     A'                     A'                     A'
 Frequencies --   3261.3155              3321.1070              3323.8847
 Red. masses --      1.0881                 1.0826                 1.0853
 Frc consts  --      6.8187                 7.0356                 7.0648
 IR Inten    --     62.7281                64.0661                40.5911

 - Thermochemistry -
 -------------------
 Temperature   298.150 Kelvin.  Pressure   1.00000 Atm.
 Atom     1 has atomic number  6 and mass  12.00000

 Molecular mass:    72.02113 amu.
 Principal axes and moments of inertia in atomic units:
                           1         2         3
     Eigenvalues --   184.66422 351.62836 536.29258
           X            0.99999  -0.00361   0.00000
           Y            0.00361   0.99999   0.00000
           Z            0.00000  -0.00000   1.00000
 This molecule is an asymmetric top.
 Rotational symmetry number  1.
 Rotational temperatures (Kelvin)      0.46903     0.24632     0.16150
 Rotational constants (GHZ):           9.77310     5.13252     3.36522
 Zero-point vibrational energy     181474.7 (Joules/Mol)
                                   43.37348 (Kcal/Mol)
 Warning -- explicit consideration of   4 degrees of freedom as
           vibrations may cause significant error
 Vibrational temperatures:    397.43   398.51   536.92   742.21  1122.77
          (Kelvin)           1287.53  1289.85  1436.72  1474.69  1510.27
                             1634.76  1884.68  2070.90  2074.87  2173.85
                             2421.79  2498.73  4443.34  4692.31  4778.33
                             4782.33

 Zero-point correction=                           0.069120 (Hartree/Particle)
 Thermal correction to Energy=                    0.073751
 Thermal correction to Enthalpy=                  0.074695
 Thermal correction to Gibbs Free Energy=         0.041679
 Sum of electronic and zero-point Energies=           -266.328773
 Sum of electronic and thermal Energies=              -266.324143
 Sum of electronic and thermal Enthalpies=            -266.323198
 Sum of electronic and thermal Free Energies=         -266.356214

                     E (Thermal)             CV                S
                      KCal/Mol        Cal/Mol-Kelvin    Cal/Mol-Kelvin
 Total                   46.279             15.609             69.487
 Electronic               0.000              0.000              0.000
 Translational            0.889              2.981             38.740
 Rotational               0.889              2.981             25.058
 Vibrational             44.502              9.647              5.690
 Vibration     1          0.678              1.717              1.557
 Vibration     2          0.678              1.716              1.552
 Vibration     3          0.745              1.527              1.067
 Vibration     4          0.871              1.215              0.620

 Error termination via Lnk1e in /sw/contrib/gaussian/g16/A03/g16/l717.exe at Tue Oct 27 13:55:27 2020.
