 Gaussian 16, Revision A.03,
 Gaussian 16:  ES64L-G16RevA.03 25-Dec-2016

 -------------------------------------------------------
 # MP2/6-31G** Opt=(Recalc=50) Freq=(vibrot, anharmonic)
 -------------------------------------------------------

 -----
 H,F,F
 -----
 Symbolic Z-matrix:
 Charge =  0 Multiplicity = 1

 SCF Done:  E(RHF) =  -463.342330258     A.U. after   14 cycles
 E2 =    -0.1083587949D+01 EUMP2 =    -0.46442591820686D+03
 E2 =    -0.1083587949D+01 EUMP2 =    -0.46442591820686D+03
 SCF Done:  E(RHF) =  -463.346856076     A.U. after   12 cycles
 E2 =    -0.1082814771D+01 EUMP2 =    -0.46442967084725D+03
 SCF Done:  E(RHF) =  -463.346515187     A.U. after   11 cycles
 E2 =    -0.1083177192D+01 EUMP2 =    -0.46442969237858D+03
 SCF Done:  E(RHF) =  -463.346508461     A.U. after    9 cycles
 E2 =    -0.1083184225D+01 EUMP2 =    -0.46442969268600D+03
 Optimization completed.
    -- Stationary point found.

 1\1\GINC-N2288\FOpt\RMP2-FC\6-31G(d,p)\C3H2F2O2\GDS001\27-Oct-2020\0\\
 # MP2/6-31G** Opt=(Recalc=50) Freq=(vibrot, anharmonic)\\H,F,F\\0,1\C,
 -0.4276069588,3.5589208621,-0.000001093\C,-0.2978282421,2.21121182,-0.
 0000042564\C,1.0006177248,1.5693419148,-0.0000091818\O,0.5842347574,4.
 4350250014,-0.0000020639\O,2.0666669354,2.1551190029,-0.0000109029\H,-
 1.4077197286,4.0149305621,0.0000025756\H,1.4197881255,3.9249448506,-0.
 0000054337\F,-1.3996651802,1.4236907424,-0.0000028562\F,0.9355648175,0
 .2256003425,-0.0000117983\\Version=ES64L-G16RevA.03\State=1-A\HF=-463.

 Normal termination of Gaussian 16 at Tue Oct 27 13:18:15 2020.

 ----------------------------------------------------------------------
 #N Geom=AllCheck Guess=TCheck SCRF=Check GenChk RMP2(FC)/6-31G(d,p) Fr
 eq
 ----------------------------------------------------------------------

 Structure from the checkpoint file:  "13.chk"
 -----
 H,F,F
 -----
 Charge =  0 Multiplicity = 1

                         Standard orientation:
 ---------------------------------------------------------------------
 Center     Atomic      Atomic             Coordinates (Angstroms)
 Number     Number       Type             X           Y           Z
 ---------------------------------------------------------------------
      1          6           0        1.441689    0.574288    0.000005
      2          6           0        0.089236    0.637796    0.000002
      3          6           0       -0.731036   -0.555985   -0.000003
      4          8           0        2.164737   -0.552027    0.000004
      5          8           0       -0.303077   -1.694601   -0.000005
      6          1           0        2.032654    1.479455    0.000009
      7          1           0        1.540843   -1.306406    0.000001
      8          9           0       -0.533313    1.840571    0.000003
      9          9           0       -2.051811   -0.300196   -0.000006
 ---------------------------------------------------------------------

 SCF Done:  E(RHF) =  -463.346508461     A.U. after    1 cycles
 E2 =    -0.1083184220D+01 EUMP2 =    -0.46442969268161D+03
 E2 =    -0.1083184220D+01 EUMP2 =    -0.46442969268161D+03
 SCF Done:  E(RHF) =  -463.346508189     A.U. after    8 cycles
 E2 =    -0.1083184413D+01 EUMP2 =    -0.46442969260153D+03
 E2 =    -0.1083184413D+01 EUMP2 =    -0.46442969260153D+03
 SCF Done:  E(RHF) =  -463.346508189     A.U. after    8 cycles
 E2 =    -0.1083184413D+01 EUMP2 =    -0.46442969260153D+03
 E2 =    -0.1083184413D+01 EUMP2 =    -0.46442969260153D+03
 SCF Done:  E(RHF) =  -463.346521237     A.U. after    9 cycles
 E2 =    -0.1083171157D+01 EUMP2 =    -0.46442969239399D+03
 E2 =    -0.1083171157D+01 EUMP2 =    -0.46442969239399D+03
 SCF Done:  E(RHF) =  -463.346494596     A.U. after    9 cycles
 E2 =    -0.1083197678D+01 EUMP2 =    -0.46442969227346D+03
 E2 =    -0.1083197678D+01 EUMP2 =    -0.46442969227346D+03
 SCF Done:  E(RHF) =  -463.346509640     A.U. after    9 cycles
 E2 =    -0.1083182403D+01 EUMP2 =    -0.46442969204303D+03
 E2 =    -0.1083182403D+01 EUMP2 =    -0.46442969204303D+03
 E2 =    -0.1083186414D+01 EUMP2 =    -0.46442969209025D+03
 E2 =    -0.1083186414D+01 EUMP2 =    -0.46442969209025D+03
 E2 =    -0.1083184582D+01 EUMP2 =    -0.46442969195556D+03
 SCF Done:  E(RHF) =  -463.346331590     A.U. after   10 cycles
 E2 =    -0.1083346584D+01 EUMP2 =    -0.46442967817422D+03
 E2 =    -0.1083346584D+01 EUMP2 =    -0.46442967817422D+03
 SCF Done:  E(RHF) =  -463.346654454     A.U. after   10 cycles
 E2 =    -0.1083023551D+01 EUMP2 =    -0.46442967800481D+03
 E2 =    -0.1083023551D+01 EUMP2 =    -0.46442967800481D+03
 SCF Done:  E(RHF) =  -463.346574762     A.U. after   10 cycles
 E2 =    -0.1083097368D+01 EUMP2 =    -0.46442967212999D+03
 E2 =    -0.1083097368D+01 EUMP2 =    -0.46442967212999D+03
 SCF Done:  E(RHF) =  -463.346401027     A.U. after   10 cycles
 E2 =    -0.1083271456D+01 EUMP2 =    -0.46442967248274D+03
 E2 =    -0.1083271456D+01 EUMP2 =    -0.46442967248274D+03
 SCF Done:  E(RHF) =  -463.346819792     A.U. after   10 cycles
 E2 =    -0.1082850099D+01 EUMP2 =    -0.46442966989156D+03
 E2 =    -0.1082850099D+01 EUMP2 =    -0.46442966989156D+03
 SCF Done:  E(RHF) =  -463.346152071     A.U. after   10 cycles
 E2 =    -0.1083518042D+01 EUMP2 =    -0.46442967011275D+03
 E2 =    -0.1083518042D+01 EUMP2 =    -0.46442967011275D+03
 SCF Done:  E(RHF) =  -463.346532237     A.U. after   10 cycles
 E2 =    -0.1083085100D+01 EUMP2 =    -0.46442961733671D+03
 E2 =    -0.1083085100D+01 EUMP2 =    -0.46442961733671D+03
 SCF Done:  E(RHF) =  -463.346334028     A.U. after   10 cycles
 E2 =    -0.1083286256D+01 EUMP2 =    -0.46442962028364D+03
 E2 =    -0.1083286256D+01 EUMP2 =    -0.46442962028364D+03
 SCF Done:  E(RHF) =  -463.345991068     A.U. after   10 cycles
 E2 =    -0.1083614556D+01 EUMP2 =    -0.46442960562470D+03
 E2 =    -0.1083614556D+01 EUMP2 =    -0.46442960562470D+03
 SCF Done:  E(RHF) =  -463.346847004     A.U. after   10 cycles
 E2 =    -0.1082753860D+01 EUMP2 =    -0.46442960086399D+03
 E2 =    -0.1082753860D+01 EUMP2 =    -0.46442960086399D+03

 Alpha  occ. eigenvalues --  -26.35554 -26.33389 -20.64073 -20.60932 -11.46235
 Alpha  occ. eigenvalues --  -11.37230 -11.35092  -1.67342  -1.63792  -1.46067
 Alpha  occ. eigenvalues --   -1.43204  -1.09692  -0.95449  -0.86160  -0.79424
 Alpha  occ. eigenvalues --   -0.77830  -0.74072  -0.72981  -0.70454  -0.69007
 Alpha  occ. eigenvalues --   -0.66559  -0.63392  -0.61858  -0.60369  -0.56101
 Alpha  occ. eigenvalues --   -0.50706  -0.38609
 Alpha virt. eigenvalues --    0.07272   0.23322   0.25869   0.26115   0.31070
 Alpha virt. eigenvalues --    0.38689   0.43269   0.51144   0.53749   0.57588
 Alpha virt. eigenvalues --    0.68261   0.72154   0.76504   0.77308   0.77733

 Mulliken charges:
               1
     1  C    0.145937
     2  C    0.195435
     3  C    0.618197
     4  O   -0.504898
     5  O   -0.435661
     6  H    0.174757
     7  H    0.369461
     8  F   -0.300299
     9  F   -0.262930
 Sum of Mulliken charges =  -0.00000

 Dipole moment (field-independent basis, Debye):
    X=              1.1578    Y=              0.8457    Z=              0.0000  Tot=              1.4338
 Quadrupole moment (field-independent basis, Debye-Ang):
   XX=            -40.3482   YY=            -39.7953   ZZ=            -36.8357
   XY=              1.5437   XZ=             -0.0000   YZ=             -0.0000

  Exact polarizability:  52.893   0.975  40.975   0.000   0.000  17.733
 Approx polarizability:  42.884  -1.415  35.672   0.000   0.000  18.901

                      1                      2                      3
                      A                      A                      A
 Frequencies --    105.4013               226.4628               301.3878
 Red. masses --     14.7364                 9.5904                11.3794
 Frc consts  --      0.0965                 0.2898                 0.6090
 IR Inten    --      0.0308                 4.9957                 3.1361

                      4                      5                      6
                      A                      A                      A
 Frequencies --    327.6970               345.8304               469.1805
 Red. masses --     11.2928                 2.8501                11.1540
 Frc consts  --      0.7145                 0.2008                 1.4466
 IR Inten    --      2.6941                 0.2562                 1.4107

                      7                      8                      9
                      A                      A                      A
 Frequencies --    573.1445               641.2948               714.2614
 Red. masses --      9.3558                 7.5669                 3.3803
 Frc consts  --      1.8108                 1.8335                 1.0161
 IR Inten    --     14.4873                13.0831                 2.5196

                     10                     11                     12
                      A                      A                      A
 Frequencies --    726.4734               814.7599               958.7170
 Red. masses --      1.6351                10.0513                 1.2735
 Frc consts  --      0.5084                 3.9313                 0.6897
 IR Inten    --    114.2589                 7.8934                50.8395

                     13                     14                     15
                      A                      A                      A
 Frequencies --   1163.0204              1270.4950              1314.6263
 Red. masses --      4.5722                 2.2417                 2.7068
 Frc consts  --      3.6438                 2.1319                 2.7562
 IR Inten    --    247.1809               161.9477               182.0258

                     16                     17                     18
                      A                      A                      A
 Frequencies --   1438.2336              1469.4563              1736.4284
 Red. masses --      1.3806                 6.2221                 5.2245
 Frc consts  --      1.6826                 7.9159                 9.2814
 IR Inten    --     77.9657               256.4078               141.2723

                     19                     20                     21
                      A                      A                      A
 Frequencies --   1831.9748              3305.9556              3637.3831
 Red. masses --     11.3815                 1.0940                 1.0655
 Frc consts  --     22.5055                 7.0449                 8.3060
 IR Inten    --    142.6823                 3.3899               103.5645

 - Thermochemistry -
 -------------------
 Temperature   298.150 Kelvin.  Pressure   1.00000 Atm.
 Atom     1 has atomic number  6 and mass  12.00000

 Molecular mass:   108.00229 amu.
 Principal axes and moments of inertia in atomic units:
                           1         2         3
     Eigenvalues --   476.06528 712.394881188.46016
           X            0.99982   0.01919  -0.00000
           Y           -0.01919   0.99982  -0.00000
           Z            0.00000   0.00000   1.00000
 This molecule is an asymmetric top.
 Rotational symmetry number  1.
 Warning -- assumption of classical behavior for rotation
           may cause significant error
 Rotational temperatures (Kelvin)      0.18194     0.12158     0.07288
 Rotational constants (GHZ):           3.79095     2.53334     1.51855
 Zero-point vibrational energy     139796.7 (Joules/Mol)
                                   33.41221 (Kcal/Mol)
 Warning -- explicit consideration of   7 degrees of freedom as
           vibrations may cause significant error
 Vibrational temperatures:    151.65   325.83   433.63   471.48   497.57
          (Kelvin)            675.05   824.63   922.68  1027.66  1045.23
                             1172.26  1379.38  1673.33  1827.96  1891.45
                             2069.30  2114.22  2498.33  2635.80  4756.53
                             5233.38

 Zero-point correction=                           0.053246 (Hartree/Particle)
 Thermal correction to Energy=                    0.059440
 Thermal correction to Enthalpy=                  0.060385
 Thermal correction to Gibbs Free Energy=         0.022756
 Sum of electronic and zero-point Energies=           -464.376447
 Sum of electronic and thermal Energies=              -464.370252
 Sum of electronic and thermal Enthalpies=            -464.369308
 Sum of electronic and thermal Free Energies=         -464.406937

                     E (Thermal)             CV                S
                      KCal/Mol        Cal/Mol-Kelvin    Cal/Mol-Kelvin
 Total                   37.299             21.334             79.197
 Electronic               0.000              0.000              0.000
 Translational            0.889              2.981             39.947
 Rotational               0.889              2.981             27.491
 Vibrational             35.522             15.372             11.759
 Vibration     1          0.605              1.945              3.352
 Vibration     2          0.650              1.801              1.907
 Vibration     3          0.693              1.671              1.409
 Vibration     4          0.711              1.620              1.271
 Vibration     5          0.724              1.584              1.185
 Vibration     6          0.826              1.318              0.740
 Vibration     7          0.929              1.089              0.498

 Error termination via Lnk1e in /sw/contrib/gaussian/g16/A03/g16/l717.exe at Tue Oct 27 14:26:20 2020.
