============================== echo of input deck ==============================
echo
start 13C
title "F,H,F Chelate"
charge 0

geometry
 zmatrix
  O
  C  1  R1
  C  2  R2  1  A1
  C  3  R3  2  A2  1  D0
  O  4  R4  3  A3  2  D0
  H  1  R5  2  A4  3  D0
  F  2  R6  3  A5  4  D180
  H  3  R7  2  A6  1  D180
  F  4  R8  3  A7  2  D180
  variables
    R1  1.329
    R2  1.363
    A1  124.5
    R3  1.440
    A2  119.5
    R4  1.249
    A3  123.5
    R5  0.994
    A4  105.4
    R6  1.385
    A5  122.5
    R7  1.078
    A6  120.0
    R8  1.399
    A7  117.6
  constants
    D0  0.000
    D180 180.0
 end
end

basis spherical
 * library aug-cc-pVDZ
end

set lindep:n_dep 0

set cphf:maxsub 95
set cphf:maxiter 999
set int:acc_std 1d-16
set fock:densityscreen f

scf
 maxiter 99
 vectors input atomic
 thresh 1d-9
 tol2e 1d-15
end

mp2
 freeze atomic
 tight
end

driver
 clear
 maxiter 99
 tight
end

set "mp2:aotol2e fock" 1d-15
set mp2:aotol2e 1d-15
set mp2:backtol 1d-15

task mp2 optimize
task mp2 frequencies

================================================================================

         Total SCF energy =   -463.416599456956
          Total MP2 energy          -464.621305649594
@ Step       Energy      Delta E   Gmax     Grms     Xrms     Xmax   Walltime
@ ---- ---------------- -------- -------- -------- -------- -------- --------
@    0    -464.62130565  0.0D+00  0.04304  0.01508  0.00000  0.00000    141.8
         Total SCF energy =   -463.434547102415
          Total MP2 energy          -464.625370036238
         Total SCF energy =   -463.431799007168
          Total MP2 energy          -464.627443121999
@    1    -464.62744312 -6.1D-03  0.01156  0.00451  0.04520  0.11029    321.7
         Total SCF energy =   -463.431134873025
          Total MP2 energy          -464.622688392591
         Total SCF energy =   -463.433849935543
          Total MP2 energy          -464.628230267181
@    2    -464.62823027 -7.9D-04  0.00485  0.00157  0.02428  0.06072    512.9
         Total SCF energy =   -463.433912310341
          Total MP2 energy          -464.628180476059
         Total SCF energy =   -463.433976425052
          Total MP2 energy          -464.628300802957
@    3    -464.62830080 -7.1D-05  0.00154  0.00080  0.00714  0.02423    689.9
         Total SCF energy =   -463.433612936805
          Total MP2 energy          -464.628324310595
         Total SCF energy =   -463.433780702325
          Total MP2 energy          -464.628340166892
@    4    -464.62834017 -3.9D-05  0.00081  0.00039  0.00595  0.02108    868.0
         Total SCF energy =   -463.433695059444
          Total MP2 energy          -464.628335749586
         Total SCF energy =   -463.433752548566
          Total MP2 energy          -464.628346412038
@    5    -464.62834641 -6.2D-06  0.00033  0.00015  0.00356  0.00871   1043.2
         Total SCF energy =   -463.433752140100
          Total MP2 energy          -464.628347216229
         Total SCF energy =   -463.433752140100
          Total MP2 energy          -464.628347216229
@    6    -464.62834722 -8.0D-07  0.00014  0.00004  0.00069  0.00237   1168.2
         Total SCF energy =   -463.433737571187
          Total MP2 energy          -464.628347273785
         Total SCF energy =   -463.433737571187
          Total MP2 energy          -464.628347273785
@    7    -464.62834727 -5.8D-08  0.00006  0.00002  0.00025  0.00076   1291.7
         Total SCF energy =   -463.433744392718

 Vector   44  Occ=0.000000D+00  E= 2.454316D-01  Symmetry=a'

 Vector   45  Occ=0.000000D+00  E= 2.518330D-01  Symmetry=a"

 Vector   46  Occ=0.000000D+00  E= 2.621513D-01  Symmetry=a'

 Vector   47  Occ=0.000000D+00  E= 2.714049D-01  Symmetry=a'

 Vector   48  Occ=0.000000D+00  E= 2.741352D-01  Symmetry=a"

 Vector   49  Occ=0.000000D+00  E= 2.834257D-01  Symmetry=a'

 Vector   50  Occ=0.000000D+00  E= 3.053738D-01  Symmetry=a'

 Vector   51  Occ=0.000000D+00  E= 3.144853D-01  Symmetry=a"

 Vector   52  Occ=0.000000D+00  E= 3.253044D-01  Symmetry=a'

 Vector   53  Occ=0.000000D+00  E= 3.293401D-01  Symmetry=a'

 Vector   54  Occ=0.000000D+00  E= 3.419018D-01  Symmetry=a'

 Vector   55  Occ=0.000000D+00  E= 3.493275D-01  Symmetry=a'

 Vector   56  Occ=0.000000D+00  E= 3.555158D-01  Symmetry=a"

 Vector   57  Occ=0.000000D+00  E= 3.684728D-01  Symmetry=a'

 Vector   58  Occ=0.000000D+00  E= 3.792669D-01  Symmetry=a'

 Vector   59  Occ=0.000000D+00  E= 4.027067D-01  Symmetry=a"

 Vector   60  Occ=0.000000D+00  E= 4.047508D-01  Symmetry=a'

 Vector   61  Occ=0.000000D+00  E= 4.133713D-01  Symmetry=a'

 Vector   62  Occ=0.000000D+00  E= 4.224878D-01  Symmetry=a'

 Vector   63  Occ=0.000000D+00  E= 4.354376D-01  Symmetry=a'

 Vector   64  Occ=0.000000D+00  E= 4.799705D-01  Symmetry=a"

 Vector   65  Occ=0.000000D+00  E= 4.819105D-01  Symmetry=a'

 Vector   66  Occ=0.000000D+00  E= 5.022886D-01  Symmetry=a'

          Total MP2 energy          -464.628347279790
         Total SCF energy =   -463.433744392718
          Total MP2 energy          -464.628347279790
@    8    -464.62834728 -6.0D-09  0.00000  0.00000  0.00004  0.00012   1412.2
         Total SCF energy =   -463.433744904352

 Vector   10  Occ=2.000000D+00  E=-1.487923D+00  Symmetry=a'

 Vector   11  Occ=2.000000D+00  E=-1.434567D+00  Symmetry=a'

 Vector   12  Occ=2.000000D+00  E=-1.114870D+00  Symmetry=a'

 Vector   13  Occ=2.000000D+00  E=-9.466633D-01  Symmetry=a'

 Vector   14  Occ=2.000000D+00  E=-8.897268D-01  Symmetry=a'

 Vector   15  Occ=2.000000D+00  E=-8.089389D-01  Symmetry=a'

 Vector   16  Occ=2.000000D+00  E=-7.786660D-01  Symmetry=a'

 Vector   17  Occ=2.000000D+00  E=-7.646855D-01  Symmetry=a"

 Vector   18  Occ=2.000000D+00  E=-7.343463D-01  Symmetry=a'

 Vector   19  Occ=2.000000D+00  E=-7.298790D-01  Symmetry=a"

 Vector   20  Occ=2.000000D+00  E=-7.214507D-01  Symmetry=a'

 Vector   21  Occ=2.000000D+00  E=-6.988456D-01  Symmetry=a'

 Vector   22  Occ=2.000000D+00  E=-6.351887D-01  Symmetry=a'

 Vector   23  Occ=2.000000D+00  E=-6.257234D-01  Symmetry=a"

 Vector   24  Occ=2.000000D+00  E=-6.159759D-01  Symmetry=a'

 Vector   25  Occ=2.000000D+00  E=-5.658775D-01  Symmetry=a"

 Vector   26  Occ=2.000000D+00  E=-5.147285D-01  Symmetry=a'

 Vector   27  Occ=2.000000D+00  E=-4.025350D-01  Symmetry=a"

 Vector   28  Occ=0.000000D+00  E= 3.156053D-02  Symmetry=a'

 Vector   29  Occ=0.000000D+00  E= 5.241533D-02  Symmetry=a'

 Vector   30  Occ=0.000000D+00  E= 7.155049D-02  Symmetry=a'

 Vector   31  Occ=0.000000D+00  E= 7.583487D-02  Symmetry=a"

 Vector   32  Occ=0.000000D+00  E= 9.090102D-02  Symmetry=a"

 Vector   33  Occ=0.000000D+00  E= 9.790385D-02  Symmetry=a'

 Vector   34  Occ=0.000000D+00  E= 1.129965D-01  Symmetry=a'

 Vector   35  Occ=0.000000D+00  E= 1.218931D-01  Symmetry=a'

 Vector   36  Occ=0.000000D+00  E= 1.238313D-01  Symmetry=a"

 Vector   37  Occ=0.000000D+00  E= 1.326453D-01  Symmetry=a"

 Vector   38  Occ=0.000000D+00  E= 1.446550D-01  Symmetry=a'

 Vector   39  Occ=0.000000D+00  E= 1.530587D-01  Symmetry=a'

 Vector   40  Occ=0.000000D+00  E= 1.535112D-01  Symmetry=a'

 Vector   41  Occ=0.000000D+00  E= 2.017209D-01  Symmetry=a'

 Vector   42  Occ=0.000000D+00  E= 2.063648D-01  Symmetry=a'

 Vector   43  Occ=0.000000D+00  E= 2.170356D-01  Symmetry=a"

 Vector   44  Occ=0.000000D+00  E= 2.454310D-01  Symmetry=a'

 Vector   45  Occ=0.000000D+00  E= 2.518328D-01  Symmetry=a"

 Vector   46  Occ=0.000000D+00  E= 2.621509D-01  Symmetry=a'

 Vector   47  Occ=0.000000D+00  E= 2.714049D-01  Symmetry=a'

 Vector   48  Occ=0.000000D+00  E= 2.741349D-01  Symmetry=a"

 Vector   49  Occ=0.000000D+00  E= 2.834254D-01  Symmetry=a'

 Vector   50  Occ=0.000000D+00  E= 3.053739D-01  Symmetry=a'

 Vector   51  Occ=0.000000D+00  E= 3.144858D-01  Symmetry=a"

 Vector   52  Occ=0.000000D+00  E= 3.253046D-01  Symmetry=a'

 Vector   53  Occ=0.000000D+00  E= 3.293395D-01  Symmetry=a'

 Vector   54  Occ=0.000000D+00  E= 3.419015D-01  Symmetry=a'

 Vector   55  Occ=0.000000D+00  E= 3.493280D-01  Symmetry=a'

 Vector   56  Occ=0.000000D+00  E= 3.555160D-01  Symmetry=a"

 Vector   57  Occ=0.000000D+00  E= 3.684708D-01  Symmetry=a'

 Vector   58  Occ=0.000000D+00  E= 3.792666D-01  Symmetry=a'

 Vector   59  Occ=0.000000D+00  E= 4.027062D-01  Symmetry=a"

 Vector   60  Occ=0.000000D+00  E= 4.047508D-01  Symmetry=a'

 Vector   61  Occ=0.000000D+00  E= 4.133677D-01  Symmetry=a'

 Vector   62  Occ=0.000000D+00  E= 4.224870D-01  Symmetry=a'

 Vector   63  Occ=0.000000D+00  E= 4.354379D-01  Symmetry=a'

 Vector   64  Occ=0.000000D+00  E= 4.799694D-01  Symmetry=a"

 Vector   65  Occ=0.000000D+00  E= 4.819109D-01  Symmetry=a'

 Vector   66  Occ=0.000000D+00  E= 5.022875D-01  Symmetry=a'

       Multipole analysis of the density wrt the origin
       ------------------------------------------------

     L   x y z        total         open         nuclear
     -   - - -        -----         ----         -------
     0   0 0 0     -0.000000      0.000000     54.000000

     1   1 0 0      0.523646      0.000000     -0.323039
     1   0 1 0     -0.405598      0.000000     -0.003852
     1   0 0 1     -0.000000      0.000000      0.000000

     2   2 0 0    -28.475337      0.000000    154.615842
     2   1 1 0      0.646518      0.000000      2.557621
     2   1 0 1      0.000000      0.000000      0.000000
     2   0 2 0    -34.471543      0.000000    512.795974
     2   0 1 1     -0.000000      0.000000      0.000000

          Total MP2 energy          -464.628347280137
         Total SCF energy =   -463.433744904352
          Total MP2 energy          -464.628347280137
@    9    -464.62834728 -3.5D-10  0.00000  0.00000  0.00001  0.00005   1528.9
@    9    -464.62834728 -3.5D-10  0.00000  0.00000  0.00001  0.00005   1528.9

 Output coordinates in angstroms (scale by  1.889725989 to convert to a.u.)

  No.       Tag          Charge          X              Y              Z
 ---- ---------------- ---------- -------------- -------------- --------------
    1 O                    8.0000    -1.20378532    -1.31716828     0.00000000
    2 C                    6.0000     0.10008933    -1.16694444     0.00000000
    3 C                    6.0000     0.79956635     0.01142427     0.00000000
    4 C                    6.0000     0.00743590     1.21402049     0.00000000
    5 O                    8.0000    -1.21359274     1.29975784     0.00000000
    6 H                    1.0000    -1.57268351    -0.38836340     0.00000000
    7 F                    9.0000     0.73395813    -2.33734762     0.00000000
    8 H                    1.0000     1.88555809     0.02545313     0.00000000
    9 F                    9.0000     0.75633689     2.35392024     0.00000000

         Total SCF energy =   -463.433744904352
          Total MP2 energy          -464.628347280137
         Total SCF energy =   -463.433771176880
          Total MP2 energy          -464.628347000348
         Total SCF energy =   -463.433718078103
          Total MP2 energy          -464.628347003428
         Total SCF energy =   -463.433774598020
          Total MP2 energy          -464.628347034891
         Total SCF energy =   -463.433714673510
          Total MP2 energy          -464.628347031732
         Total SCF energy =   -463.433744862194
          Total MP2 energy          -464.628347255293
         Total SCF energy =   -463.433744862193
          Total MP2 energy          -464.628347255293
         Total SCF energy =   -463.433739886346
          Total MP2 energy          -464.628346910303
         Total SCF energy =   -463.433749180996
          Total MP2 energy          -464.628346904093
         Total SCF energy =   -463.433730420003
          Total MP2 energy          -464.628346877339
         Total SCF energy =   -463.433758581260
          Total MP2 energy          -464.628346874945
         Total SCF energy =   -463.433744779214
          Total MP2 energy          -464.628347189494
         Total SCF energy =   -463.433744779214
          Total MP2 energy          -464.628347189494
         Total SCF energy =   -463.433738669565
          Total MP2 energy          -464.628346879131
         Total SCF energy =   -463.433750297799
          Total MP2 energy          -464.628346880428
         Total SCF energy =   -463.433728682364
          Total MP2 energy          -464.628346915846
         Total SCF energy =   -463.433760420943
          Total MP2 energy          -464.628346921303
         Total SCF energy =   -463.433744845903
          Total MP2 energy          -464.628347237895
         Total SCF energy =   -463.433744845902
          Total MP2 energy          -464.628347237894
         Total SCF energy =   -463.433712922160
          Total MP2 energy          -464.628346826072
         Total SCF energy =   -463.433776001070
          Total MP2 energy          -464.628346827330
         Total SCF energy =   -463.433772948150
          Total MP2 energy          -464.628346987075
         Total SCF energy =   -463.433716232254
          Total MP2 energy          -464.628346988571
         Total SCF energy =   -463.433744765391
          Total MP2 energy          -464.628347179727
         Total SCF energy =   -463.433744765392
          Total MP2 energy          -464.628347179727
         Total SCF energy =   -463.433805492890
          Total MP2 energy          -464.628346896785
         Total SCF energy =   -463.433683581882
          Total MP2 energy          -464.628346900560
         Total SCF energy =   -463.433743494867
          Total MP2 energy          -464.628347214373
         Total SCF energy =   -463.433746143485
          Total MP2 energy          -464.628347213217
         Total SCF energy =   -463.433744869314
          Total MP2 energy          -464.628347260504
         Total SCF energy =   -463.433744869313
          Total MP2 energy          -464.628347260503
         Total SCF energy =   -463.433749421729
          Total MP2 energy          -464.628347211418
         Total SCF energy =   -463.433740226668
          Total MP2 energy          -464.628347209633
         Total SCF energy =   -463.433717771467
          Total MP2 energy          -464.628347125927
         Total SCF energy =   -463.433771728106
          Total MP2 energy          -464.628347129489
         Total SCF energy =   -463.433744884518
          Total MP2 energy          -464.628347267239
         Total SCF energy =   -463.433744884517
          Total MP2 energy          -464.628347267238
         Total SCF energy =   -463.433727948268
          Total MP2 energy          -464.628347197398
         Total SCF energy =   -463.433761682626
          Total MP2 energy          -464.628347198995
         Total SCF energy =   -463.433777197817
          Total MP2 energy          -464.628347105054
         Total SCF energy =   -463.433712261120
          Total MP2 energy          -464.628347103333
         Total SCF energy =   -463.433744882371
          Total MP2 energy          -464.628347266974
         Total SCF energy =   -463.433744882375
          Total MP2 energy          -464.628347266978
         Total SCF energy =   -463.433734797406
          Total MP2 energy          -464.628347087576
         Total SCF energy =   -463.433754624875
          Total MP2 energy          -464.628347087071
         Total SCF energy =   -463.433745327911
          Total MP2 energy          -464.628347254868
         Total SCF energy =   -463.433744418729
          Total MP2 energy          -464.628347255235
         Total SCF energy =   -463.433744891637
          Total MP2 energy          -464.628347270766
         Total SCF energy =   -463.433744891640
          Total MP2 energy          -464.628347270769
         Total SCF energy =   -463.433721499855
          Total MP2 energy          -464.628347204408
         Total SCF energy =   -463.433768141253
          Total MP2 energy          -464.628347202014
         Total SCF energy =   -463.433711779463
          Total MP2 energy          -464.628347149492
         Total SCF energy =   -463.433777760556
          Total MP2 energy          -464.628347146969
         Total SCF energy =   -463.433744885709
          Total MP2 energy          -464.628347270593
         Total SCF energy =   -463.433744885708
          Total MP2 energy          -464.628347270592
 Zero-Point correction to Energy  =   32.814 kcal/mol  (  0.052292 au)
 Thermal correction to Energy     =   36.550 kcal/mol  (  0.058246 au)
 Thermal correction to Enthalpy   =   37.142 kcal/mol  (  0.059190 au)
 Total Entropy                    =   78.252 cal/mol-K
   - Translational                =   39.930 cal/mol-K (mol. weight = 108.0023)
   - Rotational                   =   27.522 cal/mol-K (symmetry #  =        1)
   - Vibrational                  =   10.801 cal/mol-K
   - Translational                  =    2.979 cal/mol-K
   - Rotational                     =    2.979 cal/mol-K
   - Vibrational                    =   14.708 cal/mol-K
 P.Frequency       -0.00       -0.00       -0.00        0.00        0.00        0.00
 P.Frequency      141.03      194.27      229.48      399.73      429.52      583.19
 P.Frequency      681.49      696.02      721.58      776.08      860.38      968.66
 P.Frequency      988.15     1127.26     1269.15     1421.06     1456.63     1699.92
 P.Frequency     1763.09     3243.01     3314.85

 Normal Eigenvalue ||           Projected Infra Red Intensities
  Mode   [cm**-1]  || [atomic units] [(debye/angs)**2] [(KM/mol)] [arbitrary]
 ------ ---------- || -------------- ----------------- ---------- -----------
    1       -0.000 ||    0.000109           0.003         0.107       0.013
    2       -0.000 ||    0.000205           0.005         0.200       0.024
    3       -0.000 ||    0.000049           0.001         0.047       0.006
    4        0.000 ||    0.000398           0.009         0.388       0.047
    5        0.000 ||    0.000092           0.002         0.089       0.011
    6        0.000 ||    0.000002           0.000         0.002       0.000
    7      141.025 ||    0.000892           0.021         0.869       0.105
    8      194.273 ||    0.003356           0.077         3.272       0.394
    9      229.475 ||    0.014321           0.330        13.961       1.680
   10      399.726 ||    0.001939           0.045         1.890       0.227
   11      429.521 ||    0.001535           0.035         1.496       0.180
   12      583.189 ||    0.002464           0.057         2.402       0.289
   13      681.485 ||    0.009752           0.225         9.507       1.144
   14      696.021 ||    0.008681           0.200         8.462       1.018
   15      721.576 ||    0.022942           0.529        22.365       2.692
   16      776.076 ||    0.061349           1.415        59.806       7.198
   17      860.381 ||    0.052095           1.202        50.784       6.112
   18      968.665 ||    0.009881           0.228         9.633       1.159
   19      988.148 ||    0.200058           4.616       195.027      23.471
   20     1127.258 ||    0.171114           3.948       166.811      20.076
   21     1269.146 ||    0.249502           5.756       243.226      29.272
   22     1421.058 ||    0.048654           1.122        47.431       5.708
   23     1456.628 ||    0.133059           3.070       129.712      15.611
   24     1699.923 ||    0.689247          15.901       671.912      80.865
   25     1763.086 ||    0.339615           7.835       331.074      39.845
   26     3243.007 ||    0.269527           6.218       262.748      31.622
   27     3314.852 ||    0.010497           0.242        10.233       1.231
 ----------------------------------------------------------------------------

 Total times  cpu:     7501.9s     wall:     7561.9s
