============================== echo of input deck ==============================
echo
start 13O
title "F,H,F Open"
charge 0

geometry
 zmatrix
  O
  C  1  R1
  C  2  R2  1  A1
  C  3  R3  2  A2  1  D0
  O  4  R4  3  A3  2  D0
  H  1  R5  2  A4  3  D180
  F  2  R6  3  A5  4  D180
  H  3  R7  2  A6  1  D180
  F  4  R8  3  A7  2  D180
  variables
    R1  1.329
    R2  1.363
    A1  124.5
    R3  1.440
    A2  119.5
    R4  1.249
    A3  123.5
    R5  0.994
    A4  105.4
    R6  1.385
    A5  122.5
    R7  1.078
    A6  120.0
    R8  1.399
    A7  117.6
  constants
    D0  0.000
    D180 180.0
 end
end

basis spherical
 * library aug-cc-pVDZ
end

set lindep:n_dep 0

set cphf:maxsub 95
set cphf:maxiter 999
set int:acc_std 1d-16
set fock:densityscreen f

scf
 maxiter 99
 vectors input atomic
 thresh 1d-9
 tol2e 1d-15
end

mp2
 freeze atomic
 tight
end

driver
 clear
 maxiter 99
 tight
end

set "mp2:aotol2e fock" 1d-15
set mp2:aotol2e 1d-15
set mp2:backtol 1d-15

task mp2 optimize
task mp2 frequencies

================================================================================

         Total SCF energy =   -463.398549394953
          Total MP2 energy          -464.603827086638
@ Step       Energy      Delta E   Gmax     Grms     Xrms     Xmax   Walltime
@ ---- ---------------- -------- -------- -------- -------- -------- --------
@    0    -464.60382709  0.0D+00  0.05642  0.01608  0.00000  0.00000    140.9
         Total SCF energy =   -463.422308345123
          Total MP2 energy          -464.611690589618
         Total SCF energy =   -463.419632489465
          Total MP2 energy          -464.612452396405
@    1    -464.61245240 -8.6D-03  0.00953  0.00388  0.10987  0.31164    328.8
         Total SCF energy =   -463.417872143665
          Total MP2 energy          -464.610765503416
         Total SCF energy =   -463.420225852196
          Total MP2 energy          -464.612992813120
@    2    -464.61299281 -5.4D-04  0.00619  0.00217  0.02250  0.06469    513.8
         Total SCF energy =   -463.419457139508
          Total MP2 energy          -464.613182522027
         Total SCF energy =   -463.419698147006
          Total MP2 energy          -464.613200095039
@    3    -464.61320010 -2.1D-04  0.00264  0.00095  0.00992  0.01914    683.9
         Total SCF energy =   -463.419350438569
          Total MP2 energy          -464.613233462575
         Total SCF energy =   -463.419463569999
          Total MP2 energy          -464.613239290572
@    4    -464.61323929 -3.9D-05  0.00126  0.00045  0.00626  0.02169    855.5
         Total SCF energy =   -463.419586055774
          Total MP2 energy          -464.613228924218
         Total SCF energy =   -463.419522084566
          Total MP2 energy          -464.613245988706
@    5    -464.61324599 -6.7D-06  0.00060  0.00020  0.00176  0.00404   1027.3
         Total SCF energy =   -463.419580078270
          Total MP2 energy          -464.613247985538
         Total SCF energy =   -463.419580078270
          Total MP2 energy          -464.613247985538
@    6    -464.61324799 -2.0D-06  0.00032  0.00008  0.00200  0.00569   1151.2
         Total SCF energy =   -463.419522302560
          Total MP2 energy          -464.613248098342
         Total SCF energy =   -463.419534549719
          Total MP2 energy          -464.613248107010
@    7    -464.61324811 -1.2D-07  0.00005  0.00002  0.00021  0.00058   1306.0
         Total SCF energy =   -463.419528671237

 Vector   46  Occ=0.000000D+00  E= 2.652944D-01  Symmetry=a'

 Vector   47  Occ=0.000000D+00  E= 2.756973D-01  Symmetry=a'

 Vector   48  Occ=0.000000D+00  E= 2.766225D-01  Symmetry=a'

 Vector   49  Occ=0.000000D+00  E= 2.787942D-01  Symmetry=a"

 Vector   50  Occ=0.000000D+00  E= 3.129172D-01  Symmetry=a'

 Vector   51  Occ=0.000000D+00  E= 3.180656D-01  Symmetry=a"

 Vector   52  Occ=0.000000D+00  E= 3.244756D-01  Symmetry=a'

 Vector   53  Occ=0.000000D+00  E= 3.347623D-01  Symmetry=a'

 Vector   54  Occ=0.000000D+00  E= 3.415545D-01  Symmetry=a'

 Vector   55  Occ=0.000000D+00  E= 3.477553D-01  Symmetry=a'

 Vector   56  Occ=0.000000D+00  E= 3.560022D-01  Symmetry=a'

 Vector   57  Occ=0.000000D+00  E= 3.606328D-01  Symmetry=a"

 Vector   58  Occ=0.000000D+00  E= 3.827939D-01  Symmetry=a'

 Vector   59  Occ=0.000000D+00  E= 4.023815D-01  Symmetry=a'

 Vector   60  Occ=0.000000D+00  E= 4.028194D-01  Symmetry=a"

 Vector   61  Occ=0.000000D+00  E= 4.165067D-01  Symmetry=a'

 Vector   62  Occ=0.000000D+00  E= 4.351930D-01  Symmetry=a'

 Vector   63  Occ=0.000000D+00  E= 4.464221D-01  Symmetry=a"

 Vector   64  Occ=0.000000D+00  E= 4.601176D-01  Symmetry=a'

 Vector   65  Occ=0.000000D+00  E= 4.788757D-01  Symmetry=a'

 Vector   66  Occ=0.000000D+00  E= 4.999043D-01  Symmetry=a'

 Vector   67  Occ=0.000000D+00  E= 5.286607D-01  Symmetry=a'

          Total MP2 energy          -464.613248114909
         Total SCF energy =   -463.419528671237
          Total MP2 energy          -464.613248114909
@    8    -464.61324811 -7.9D-09  0.00001  0.00000  0.00008  0.00018   1423.4
         Total SCF energy =   -463.419529423972

 Vector   10  Occ=2.000000D+00  E=-1.486483D+00  Symmetry=a'

 Vector   11  Occ=2.000000D+00  E=-1.419062D+00  Symmetry=a'

 Vector   12  Occ=2.000000D+00  E=-1.111797D+00  Symmetry=a'

 Vector   13  Occ=2.000000D+00  E=-9.366807D-01  Symmetry=a'

 Vector   14  Occ=2.000000D+00  E=-8.469785D-01  Symmetry=a'

 Vector   15  Occ=2.000000D+00  E=-8.405375D-01  Symmetry=a'

 Vector   16  Occ=2.000000D+00  E=-7.740289D-01  Symmetry=a'

 Vector   17  Occ=2.000000D+00  E=-7.656933D-01  Symmetry=a"

 Vector   18  Occ=2.000000D+00  E=-7.169762D-01  Symmetry=a'

 Vector   19  Occ=2.000000D+00  E=-7.097566D-01  Symmetry=a'

 Vector   20  Occ=2.000000D+00  E=-7.010869D-01  Symmetry=a"

 Vector   21  Occ=2.000000D+00  E=-6.478346D-01  Symmetry=a'

 Vector   22  Occ=2.000000D+00  E=-6.400755D-01  Symmetry=a'

 Vector   23  Occ=2.000000D+00  E=-6.316286D-01  Symmetry=a"

 Vector   24  Occ=2.000000D+00  E=-6.183390D-01  Symmetry=a'

 Vector   25  Occ=2.000000D+00  E=-5.449318D-01  Symmetry=a"

 Vector   26  Occ=2.000000D+00  E=-4.883060D-01  Symmetry=a'

 Vector   27  Occ=2.000000D+00  E=-3.985469D-01  Symmetry=a"

 Vector   28  Occ=0.000000D+00  E= 2.334516D-02  Symmetry=a'

 Vector   29  Occ=0.000000D+00  E= 4.048844D-02  Symmetry=a'

 Vector   30  Occ=0.000000D+00  E= 7.844334D-02  Symmetry=a'

 Vector   31  Occ=0.000000D+00  E= 8.298279D-02  Symmetry=a"

 Vector   32  Occ=0.000000D+00  E= 9.114013D-02  Symmetry=a"

 Vector   33  Occ=0.000000D+00  E= 1.008098D-01  Symmetry=a'

 Vector   34  Occ=0.000000D+00  E= 1.140544D-01  Symmetry=a'

 Vector   35  Occ=0.000000D+00  E= 1.263923D-01  Symmetry=a'

 Vector   36  Occ=0.000000D+00  E= 1.268736D-01  Symmetry=a"

 Vector   37  Occ=0.000000D+00  E= 1.373889D-01  Symmetry=a'

 Vector   38  Occ=0.000000D+00  E= 1.395617D-01  Symmetry=a"

 Vector   39  Occ=0.000000D+00  E= 1.554064D-01  Symmetry=a'

 Vector   40  Occ=0.000000D+00  E= 1.558494D-01  Symmetry=a'

 Vector   41  Occ=0.000000D+00  E= 1.959555D-01  Symmetry=a'

 Vector   42  Occ=0.000000D+00  E= 2.051923D-01  Symmetry=a'

 Vector   43  Occ=0.000000D+00  E= 2.189608D-01  Symmetry=a'

 Vector   44  Occ=0.000000D+00  E= 2.318635D-01  Symmetry=a"

 Vector   45  Occ=0.000000D+00  E= 2.511859D-01  Symmetry=a"

 Vector   46  Occ=0.000000D+00  E= 2.652945D-01  Symmetry=a'

 Vector   47  Occ=0.000000D+00  E= 2.756968D-01  Symmetry=a'

 Vector   48  Occ=0.000000D+00  E= 2.766233D-01  Symmetry=a'

 Vector   49  Occ=0.000000D+00  E= 2.787939D-01  Symmetry=a"

 Vector   50  Occ=0.000000D+00  E= 3.129168D-01  Symmetry=a'

 Vector   51  Occ=0.000000D+00  E= 3.180652D-01  Symmetry=a"

 Vector   52  Occ=0.000000D+00  E= 3.244761D-01  Symmetry=a'

 Vector   53  Occ=0.000000D+00  E= 3.347618D-01  Symmetry=a'

 Vector   54  Occ=0.000000D+00  E= 3.415543D-01  Symmetry=a'

 Vector   55  Occ=0.000000D+00  E= 3.477549D-01  Symmetry=a'

 Vector   56  Occ=0.000000D+00  E= 3.560024D-01  Symmetry=a'

 Vector   57  Occ=0.000000D+00  E= 3.606326D-01  Symmetry=a"

 Vector   58  Occ=0.000000D+00  E= 3.827946D-01  Symmetry=a'

 Vector   59  Occ=0.000000D+00  E= 4.023801D-01  Symmetry=a'

 Vector   60  Occ=0.000000D+00  E= 4.028205D-01  Symmetry=a"

 Vector   61  Occ=0.000000D+00  E= 4.165065D-01  Symmetry=a'

 Vector   62  Occ=0.000000D+00  E= 4.351930D-01  Symmetry=a'

 Vector   63  Occ=0.000000D+00  E= 4.464226D-01  Symmetry=a"

 Vector   64  Occ=0.000000D+00  E= 4.601175D-01  Symmetry=a'

 Vector   65  Occ=0.000000D+00  E= 4.788765D-01  Symmetry=a'

 Vector   66  Occ=0.000000D+00  E= 4.999046D-01  Symmetry=a'

 Vector   67  Occ=0.000000D+00  E= 5.286601D-01  Symmetry=a'

       Multipole analysis of the density wrt the origin
       ------------------------------------------------

     L   x y z        total         open         nuclear
     -   - - -        -----         ----         -------
     0   0 0 0     -0.000000      0.000000     54.000000

     1   1 0 0      0.409022      0.000000      1.089242
     1   0 1 0     -1.794447      0.000000      0.880609
     1   0 0 1     -0.000000      0.000000      0.000000

     2   2 0 0    -29.711316      0.000000    159.502248
     2   1 1 0      4.506326      0.000000      6.115698
     2   1 0 1     -0.000000      0.000000      0.000000
     2   0 2 0    -28.604960      0.000000    550.606695
     2   0 1 1     -0.000000      0.000000      0.000000

          Total MP2 energy          -464.613248115605
         Total SCF energy =   -463.419529423972
          Total MP2 energy          -464.613248115605
@    9    -464.61324812 -7.0D-10  0.00000  0.00000  0.00001  0.00002   1540.8
@    9    -464.61324812 -7.0D-10  0.00000  0.00000  0.00001  0.00002   1540.8

 Output coordinates in angstroms (scale by  1.889725989 to convert to a.u.)

  No.       Tag          Charge          X              Y              Z
 ---- ---------------- ---------- -------------- -------------- --------------
    1 O                    8.0000    -1.20810392    -1.38544216     0.00000000
    2 C                    6.0000     0.10074713    -1.15252380     0.00000000
    3 C                    6.0000     0.71895076     0.05364905     0.00000000
    4 C                    6.0000    -0.04740147     1.29453640     0.00000000
    5 O                    8.0000    -1.23469229     1.48159548     0.00000000
    6 H                    1.0000    -1.34673350    -2.34743988     0.00000000
    7 F                    9.0000     0.83888285    -2.28537168     0.00000000
    8 H                    1.0000     1.80552526     0.07650658     0.00000000
    9 F                    9.0000     0.83069508     2.37356448     0.00000000

         Total SCF energy =   -463.419529423972
          Total MP2 energy          -464.613248115605
         Total SCF energy =   -463.419559535466
          Total MP2 energy          -464.613247873718
         Total SCF energy =   -463.419498815359
          Total MP2 energy          -464.613247872874
         Total SCF energy =   -463.419501993956
          Total MP2 energy          -464.613247805410
         Total SCF energy =   -463.419556196578
          Total MP2 energy          -464.613247803877
         Total SCF energy =   -463.419529396363
          Total MP2 energy          -464.613248104694
         Total SCF energy =   -463.419529396363
          Total MP2 energy          -464.613248104694
         Total SCF energy =   -463.419530397107
          Total MP2 energy          -464.613247764643
         Total SCF energy =   -463.419527739754
          Total MP2 energy          -464.613247767194
         Total SCF energy =   -463.419529869108
          Total MP2 energy          -464.613247702608
         Total SCF energy =   -463.419528138322
          Total MP2 energy          -464.613247700486
         Total SCF energy =   -463.419529309879
          Total MP2 energy          -464.613248035509
         Total SCF energy =   -463.419529309878
          Total MP2 energy          -464.613248035508
         Total SCF energy =   -463.419523873526
          Total MP2 energy          -464.613247743414
         Total SCF energy =   -463.419534180793
          Total MP2 energy          -464.613247737368
         Total SCF energy =   -463.419504712235
          Total MP2 energy          -464.613247725416
         Total SCF energy =   -463.419553354251
          Total MP2 energy          -464.613247730868
         Total SCF energy =   -463.419529362358
          Total MP2 energy          -464.613248072711
         Total SCF energy =   -463.419529362358
          Total MP2 energy          -464.613248072711
         Total SCF energy =   -463.419492745592
          Total MP2 energy          -464.613247638118
         Total SCF energy =   -463.419565159735
          Total MP2 energy          -464.613247641911
         Total SCF energy =   -463.419561252407
          Total MP2 energy          -464.613247855455
         Total SCF energy =   -463.419497010708
          Total MP2 energy          -464.613247850824
         Total SCF energy =   -463.419529288185
          Total MP2 energy          -464.613248019446
         Total SCF energy =   -463.419529288186
          Total MP2 energy          -464.613248019447
         Total SCF energy =   -463.419597048284
          Total MP2 energy          -464.613247691804
         Total SCF energy =   -463.419460964322
          Total MP2 energy          -464.613247690439
         Total SCF energy =   -463.419522354118
          Total MP2 energy          -464.613248058813
         Total SCF energy =   -463.419536341608
          Total MP2 energy          -464.613248058808
         Total SCF energy =   -463.419529391471
          Total MP2 energy          -464.613248100244
         Total SCF energy =   -463.419529391467
          Total MP2 energy          -464.613248100240
         Total SCF energy =   -463.419530024909
          Total MP2 energy          -464.613248081048
         Total SCF energy =   -463.419528733957
          Total MP2 energy          -464.613248082366
         Total SCF energy =   -463.419554287942
          Total MP2 energy          -464.613247865101
         Total SCF energy =   -463.419504057291
          Total MP2 energy          -464.613247868350
         Total SCF energy =   -463.419529414652
          Total MP2 energy          -464.613248113089
         Total SCF energy =   -463.419529414650
          Total MP2 energy          -464.613248113088
         Total SCF energy =   -463.419508087032
          Total MP2 energy          -464.613248026259
         Total SCF energy =   -463.419550572124
          Total MP2 energy          -464.613248026644
         Total SCF energy =   -463.419558797200
          Total MP2 energy          -464.613247968981
         Total SCF energy =   -463.419499753687
          Total MP2 energy          -464.613247967669
         Total SCF energy =   -463.419529403521
          Total MP2 energy          -464.613248103923
         Total SCF energy =   -463.419529403523
          Total MP2 energy          -464.613248103925
         Total SCF energy =   -463.419519341567
          Total MP2 energy          -464.613247924612
         Total SCF energy =   -463.419539122214
          Total MP2 energy          -464.613247923691
         Total SCF energy =   -463.419530446800
          Total MP2 energy          -464.613248090180
         Total SCF energy =   -463.419528336188
          Total MP2 energy          -464.613248088503
         Total SCF energy =   -463.419529410289
          Total MP2 energy          -464.613248105645
         Total SCF energy =   -463.419529410290
          Total MP2 energy          -464.613248105646
         Total SCF energy =   -463.419501458236
          Total MP2 energy          -464.613248037447
         Total SCF energy =   -463.419557223624
          Total MP2 energy          -464.613248038639
         Total SCF energy =   -463.419499051899
          Total MP2 energy          -464.613248009335
         Total SCF energy =   -463.419559576966
          Total MP2 energy          -464.613248011835
         Total SCF energy =   -463.419529407203
          Total MP2 energy          -464.613248107800
         Total SCF energy =   -463.419529407204
          Total MP2 energy          -464.613248107801
 Zero-Point correction to Energy  =   32.156 kcal/mol  (  0.051245 au)
 Thermal correction to Energy     =   36.312 kcal/mol  (  0.057867 au)
 Thermal correction to Enthalpy   =   36.904 kcal/mol  (  0.058811 au)
 Total Entropy                    =   81.781 cal/mol-K
   - Translational                =   39.930 cal/mol-K (mol. weight = 108.0023)
   - Rotational                   =   27.669 cal/mol-K (symmetry #  =        1)
   - Vibrational                  =   14.183 cal/mol-K
   - Translational                  =    2.979 cal/mol-K
   - Rotational                     =    2.979 cal/mol-K
   - Vibrational                    =   16.363 cal/mol-K
 P.Frequency       -0.00       -0.00       -0.00       -0.00        0.00        0.00
 P.Frequency       77.31      167.27      167.84      361.91      368.09      395.49
 P.Frequency      566.25      652.05      658.60      728.94      794.04      926.23
 P.Frequency      942.73     1102.17     1172.10     1321.31     1417.91     1769.72
 P.Frequency     1841.83     3301.56     3771.17

 Normal Eigenvalue ||           Projected Infra Red Intensities
  Mode   [cm**-1]  || [atomic units] [(debye/angs)**2] [(KM/mol)] [arbitrary]
 ------ ---------- || -------------- ----------------- ---------- -----------
    1       -0.000 ||    0.000742           0.017         0.724       0.092
    2       -0.000 ||    0.001229           0.028         1.198       0.152
    3       -0.000 ||    0.001718           0.040         1.674       0.213
    4       -0.000 ||    0.000000           0.000         0.000       0.000
    5        0.000 ||    0.001004           0.023         0.978       0.124
    6        0.000 ||    0.000023           0.001         0.023       0.003
    7       77.307 ||    0.000377           0.009         0.368       0.047
    8      167.268 ||    0.001241           0.029         1.210       0.154
    9      167.838 ||    0.001863           0.043         1.816       0.231
   10      361.905 ||    0.110399           2.547       107.623      13.678
   11      368.094 ||    0.002501           0.058         2.438       0.310
   12      395.490 ||    0.000232           0.005         0.226       0.029
   13      566.252 ||    0.017929           0.414        17.478       2.221
   14      652.048 ||    0.037140           0.857        36.206       4.601
   15      658.604 ||    0.000640           0.015         0.624       0.079
   16      728.940 ||    0.000388           0.009         0.378       0.048
   17      794.037 ||    0.076377           1.762        74.456       9.463
   18      926.225 ||    0.129981           2.999       126.712      16.104
   19      942.728 ||    0.269357           6.214       262.583      33.372
   20     1102.172 ||    0.088515           2.042        86.289      10.967
   21     1172.102 ||    0.008128           0.188         7.924       1.007
   22     1321.308 ||    0.282740           6.523       275.629      35.030
   23     1417.911 ||    0.102635           2.368       100.054      12.716
   24     1769.721 ||    0.553961          12.780       540.028      68.634
   25     1841.830 ||    0.281995           6.506       274.903      34.938
   26     3301.561 ||    0.009899           0.228         9.650       1.226
   27     3771.170 ||    0.198227           4.573       193.241      24.560
 ----------------------------------------------------------------------------

 Total times  cpu:     7350.2s     wall:     7402.1s
