============================== echo of input deck ==============================
echo
start 13R1_
title "F,H,F Reference 1"
charge 0

geometry
 zmatrix
  O
  C  1  R1
  C  2  R2  1  A1
  H  1  R5  2  A4  3  D0
  F  2  R6  3  A5  4  D180
  H  3  R7  2  A6  1  D180
  H  3  R8  2  A7  1  D0
  variables
    R1  1.329
    R2  1.363
    A1  124.5
    R5  0.994
    A4  105.4
    R6  1.385
    A5  122.5
    R7  1.078
    A6  120.0
    R8  1.099
    A7  117.6
  constants
    D0  0.000
    D180 180.0
 end
end

basis spherical
 * library aug-cc-pVDZ
end

set lindep:n_dep 0

set cphf:maxsub 95
set cphf:maxiter 999
set int:acc_std 1d-16
set fock:densityscreen f

scf
 maxiter 99
 vectors input atomic
 thresh 1d-9
 tol2e 1d-15
end

mp2
 freeze atomic
 tight
end

driver
 clear
 maxiter 99
 tight
end

set "mp2:aotol2e fock" 1d-15
set mp2:aotol2e 1d-15
set mp2:backtol 1d-15

task mp2 optimize
task mp2 frequencies

================================================================================

         Total SCF energy =   -251.777915766284
          Total MP2 energy          -252.459002781615
@ Step       Energy      Delta E   Gmax     Grms     Xrms     Xmax   Walltime
@ ---- ---------------- -------- -------- -------- -------- -------- --------
@    0    -252.45900278  0.0D+00  0.03259  0.01472  0.00000  0.00000     29.0
         Total SCF energy =   -251.781062679091
          Total MP2 energy          -252.457899611617
         Total SCF energy =   -251.784426725417
          Total MP2 energy          -252.463238852233
@    1    -252.46323885 -4.2D-03  0.01331  0.00680  0.06589  0.14177     68.8
         Total SCF energy =   -251.787892485994
          Total MP2 energy          -252.463539920452
         Total SCF energy =   -251.787276716521
          Total MP2 energy          -252.464343055617
@    2    -252.46434306 -1.1D-03  0.00263  0.00110  0.02957  0.07532    106.1
         Total SCF energy =   -251.787291115905
          Total MP2 energy          -252.464407320188
         Total SCF energy =   -251.787291115905
          Total MP2 energy          -252.464407320188
@    3    -252.46440732 -6.4D-05  0.00155  0.00058  0.01114  0.03275    132.5
         Total SCF energy =   -251.787321137889
          Total MP2 energy          -252.464423854496
         Total SCF energy =   -251.787323655622
          Total MP2 energy          -252.464424235258
@    4    -252.46442424 -1.7D-05  0.00037  0.00019  0.00697  0.02048    166.1
         Total SCF energy =   -251.787322756151
          Total MP2 energy          -252.464425408041
         Total SCF energy =   -251.787322756151
          Total MP2 energy          -252.464425408041
@    5    -252.46442541 -1.2D-06  0.00007  0.00003  0.00100  0.00230    191.4
         Total SCF energy =   -251.787316144550
          Total MP2 energy          -252.464425441944
         Total SCF energy =   -251.787316144550
          Total MP2 energy          -252.464425441944
@    6    -252.46442544 -3.4D-08  0.00002  0.00001  0.00018  0.00056    216.1
         Total SCF energy =   -251.787316964410

 Vector    6  Occ=2.000000D+00  E=-1.438188D+00  Symmetry=a'

 Vector    7  Occ=2.000000D+00  E=-1.042658D+00  Symmetry=a'

 Vector    8  Occ=2.000000D+00  E=-8.745920D-01  Symmetry=a'

 Vector    9  Occ=2.000000D+00  E=-7.619674D-01  Symmetry=a'

 Vector   10  Occ=2.000000D+00  E=-7.158526D-01  Symmetry=a"

 Vector   11  Occ=2.000000D+00  E=-7.104251D-01  Symmetry=a'

 Vector   12  Occ=2.000000D+00  E=-6.566227D-01  Symmetry=a'

 Vector   13  Occ=2.000000D+00  E=-6.008162D-01  Symmetry=a'

 Vector   14  Occ=2.000000D+00  E=-5.904360D-01  Symmetry=a"

 Vector   15  Occ=2.000000D+00  E=-5.731579D-01  Symmetry=a'

 Vector   16  Occ=2.000000D+00  E=-3.633791D-01  Symmetry=a"

 Vector   17  Occ=0.000000D+00  E= 2.960127D-02  Symmetry=a'

 Vector   18  Occ=0.000000D+00  E= 4.806343D-02  Symmetry=a'

 Vector   19  Occ=0.000000D+00  E= 5.864042D-02  Symmetry=a'

 Vector   20  Occ=0.000000D+00  E= 9.368931D-02  Symmetry=a'

 Vector   21  Occ=0.000000D+00  E= 1.049810D-01  Symmetry=a"

 Vector   22  Occ=0.000000D+00  E= 1.234139D-01  Symmetry=a'

 Vector   23  Occ=0.000000D+00  E= 1.240980D-01  Symmetry=a"

 Vector   24  Occ=0.000000D+00  E= 1.403409D-01  Symmetry=a'

 Vector   25  Occ=0.000000D+00  E= 1.621900D-01  Symmetry=a'

 Vector   26  Occ=0.000000D+00  E= 1.731357D-01  Symmetry=a'

 Vector   27  Occ=0.000000D+00  E= 2.046701D-01  Symmetry=a'

 Vector   28  Occ=0.000000D+00  E= 2.048974D-01  Symmetry=a"

 Vector   29  Occ=0.000000D+00  E= 2.144023D-01  Symmetry=a'

 Vector   30  Occ=0.000000D+00  E= 2.380509D-01  Symmetry=a"

 Vector   31  Occ=0.000000D+00  E= 2.480445D-01  Symmetry=a'

 Vector   32  Occ=0.000000D+00  E= 2.769161D-01  Symmetry=a'

 Vector   33  Occ=0.000000D+00  E= 3.125973D-01  Symmetry=a'

 Vector   34  Occ=0.000000D+00  E= 3.220926D-01  Symmetry=a'

 Vector   35  Occ=0.000000D+00  E= 3.303746D-01  Symmetry=a"

 Vector   36  Occ=0.000000D+00  E= 3.324245D-01  Symmetry=a'

 Vector   37  Occ=0.000000D+00  E= 3.598908D-01  Symmetry=a"

 Vector   38  Occ=0.000000D+00  E= 3.683992D-01  Symmetry=a'

 Vector   39  Occ=0.000000D+00  E= 3.824896D-01  Symmetry=a'

 Vector   40  Occ=0.000000D+00  E= 4.146198D-01  Symmetry=a"

 Vector   41  Occ=0.000000D+00  E= 4.256611D-01  Symmetry=a'

 Vector   42  Occ=0.000000D+00  E= 4.330648D-01  Symmetry=a'

 Vector   43  Occ=0.000000D+00  E= 4.683945D-01  Symmetry=a'

 Vector   44  Occ=0.000000D+00  E= 4.944111D-01  Symmetry=a"

 Vector   45  Occ=0.000000D+00  E= 5.069938D-01  Symmetry=a'

          Total MP2 energy          -252.464425444435
         Total SCF energy =   -251.787316964410
          Total MP2 energy          -252.464425444435
@    7    -252.46442544 -2.5D-09  0.00000  0.00000  0.00004  0.00013    239.8
         Total SCF energy =   -251.787316276438

 Vector    6  Occ=2.000000D+00  E=-1.438185D+00  Symmetry=a'

 Vector    7  Occ=2.000000D+00  E=-1.042657D+00  Symmetry=a'

 Vector    8  Occ=2.000000D+00  E=-8.745906D-01  Symmetry=a'

 Vector    9  Occ=2.000000D+00  E=-7.619666D-01  Symmetry=a'

 Vector   10  Occ=2.000000D+00  E=-7.158519D-01  Symmetry=a"

 Vector   11  Occ=2.000000D+00  E=-7.104249D-01  Symmetry=a'

 Vector   12  Occ=2.000000D+00  E=-6.566220D-01  Symmetry=a'

 Vector   13  Occ=2.000000D+00  E=-6.008158D-01  Symmetry=a'

 Vector   14  Occ=2.000000D+00  E=-5.904351D-01  Symmetry=a"

 Vector   15  Occ=2.000000D+00  E=-5.731573D-01  Symmetry=a'

 Vector   16  Occ=2.000000D+00  E=-3.633789D-01  Symmetry=a"

 Vector   17  Occ=0.000000D+00  E= 2.960116D-02  Symmetry=a'

 Vector   18  Occ=0.000000D+00  E= 4.806335D-02  Symmetry=a'

 Vector   19  Occ=0.000000D+00  E= 5.864039D-02  Symmetry=a'

 Vector   20  Occ=0.000000D+00  E= 9.368936D-02  Symmetry=a'

 Vector   21  Occ=0.000000D+00  E= 1.049810D-01  Symmetry=a"

 Vector   22  Occ=0.000000D+00  E= 1.234140D-01  Symmetry=a'

 Vector   23  Occ=0.000000D+00  E= 1.240980D-01  Symmetry=a"

 Vector   24  Occ=0.000000D+00  E= 1.403408D-01  Symmetry=a'

 Vector   25  Occ=0.000000D+00  E= 1.621901D-01  Symmetry=a'

 Vector   26  Occ=0.000000D+00  E= 1.731357D-01  Symmetry=a'

 Vector   27  Occ=0.000000D+00  E= 2.046697D-01  Symmetry=a'

 Vector   28  Occ=0.000000D+00  E= 2.048964D-01  Symmetry=a"

 Vector   29  Occ=0.000000D+00  E= 2.144024D-01  Symmetry=a'

 Vector   30  Occ=0.000000D+00  E= 2.380510D-01  Symmetry=a"

 Vector   31  Occ=0.000000D+00  E= 2.480443D-01  Symmetry=a'

 Vector   32  Occ=0.000000D+00  E= 2.769167D-01  Symmetry=a'

 Vector   33  Occ=0.000000D+00  E= 3.125963D-01  Symmetry=a'

 Vector   34  Occ=0.000000D+00  E= 3.220920D-01  Symmetry=a'

 Vector   35  Occ=0.000000D+00  E= 3.303745D-01  Symmetry=a"

 Vector   36  Occ=0.000000D+00  E= 3.324238D-01  Symmetry=a'

 Vector   37  Occ=0.000000D+00  E= 3.598915D-01  Symmetry=a"

 Vector   38  Occ=0.000000D+00  E= 3.683987D-01  Symmetry=a'

 Vector   39  Occ=0.000000D+00  E= 3.824889D-01  Symmetry=a'

 Vector   40  Occ=0.000000D+00  E= 4.146188D-01  Symmetry=a"

 Vector   41  Occ=0.000000D+00  E= 4.256606D-01  Symmetry=a'

 Vector   42  Occ=0.000000D+00  E= 4.330639D-01  Symmetry=a'

 Vector   43  Occ=0.000000D+00  E= 4.683942D-01  Symmetry=a'

 Vector   44  Occ=0.000000D+00  E= 4.944104D-01  Symmetry=a"

 Vector   45  Occ=0.000000D+00  E= 5.069919D-01  Symmetry=a'

       Multipole analysis of the density wrt the origin
       ------------------------------------------------

     L   x y z        total         open         nuclear
     -   - - -        -----         ----         -------
     0   0 0 0     -0.000000      0.000000     32.000000

     1   1 0 0      0.091813      0.000000     -0.039941
     1   0 1 0      1.043267      0.000000      1.253611
     1   0 0 1      0.000000      0.000000      0.000000

     2   2 0 0    -16.751153      0.000000    100.613476
     2   1 1 0     -1.648867      0.000000      4.398325
     2   1 0 1      0.000000      0.000000      0.000000
     2   0 2 0    -15.087390      0.000000     92.893385
     2   0 1 1      0.000000      0.000000      0.000000

          Total MP2 energy          -252.464425444441
         Total SCF energy =   -251.787316276438
          Total MP2 energy          -252.464425444441
@    8    -252.46442544 -6.2D-12  0.00000  0.00000  0.00001  0.00003    261.8
@    8    -252.46442544 -6.2D-12  0.00000  0.00000  0.00001  0.00003    261.8

 Output coordinates in angstroms (scale by  1.889725989 to convert to a.u.)

  No.       Tag          Charge          X              Y              Z
 ---- ---------------- ---------- -------------- -------------- --------------
    1 O                    8.0000    -1.25926742     0.41635004     0.00000000
    2 C                    6.0000     0.04587810     0.05815100     0.00000000
    3 C                    6.0000     1.15311564     0.82103642     0.00000000
    4 H                    1.0000    -1.30680245     1.38393200     0.00000000
    5 F                    9.0000     0.10703049    -1.28632103     0.00000000
    6 H                    1.0000     2.12990157     0.34351654     0.00000000
    7 H                    1.0000     1.07266748     1.90689812     0.00000000

         Total SCF energy =   -251.787316276438
          Total MP2 energy          -252.464425444441
         Total SCF energy =   -251.787342308712
          Total MP2 energy          -252.464425228506
         Total SCF energy =   -251.787289785303
          Total MP2 energy          -252.464425229051
         Total SCF energy =   -251.787336653997
          Total MP2 energy          -252.464425121777
         Total SCF energy =   -251.787295225938
          Total MP2 energy          -252.464425121141
         Total SCF energy =   -251.787316246961
          Total MP2 energy          -252.464425429439
         Total SCF energy =   -251.787316246960
          Total MP2 energy          -252.464425429438
         Total SCF energy =   -251.787321200888
          Total MP2 energy          -252.464425031323
         Total SCF energy =   -251.787310501778
          Total MP2 energy          -252.464425028504
         Total SCF energy =   -251.787311512819
          Total MP2 energy          -252.464425101187
         Total SCF energy =   -251.787320322862
          Total MP2 energy          -252.464425099380
         Total SCF energy =   -251.787316171100
          Total MP2 energy          -252.464425368869
         Total SCF energy =   -251.787316171099
          Total MP2 energy          -252.464425368868
         Total SCF energy =   -251.787293331765
          Total MP2 energy          -252.464425045654
         Total SCF energy =   -251.787338398919
          Total MP2 energy          -252.464425047171
         Total SCF energy =   -251.787299480256
          Total MP2 energy          -252.464425071353
         Total SCF energy =   -251.787332299722
          Total MP2 energy          -252.464425072527
         Total SCF energy =   -251.787316219431
          Total MP2 energy          -252.464425409658
         Total SCF energy =   -251.787316219432
          Total MP2 energy          -252.464425409659
         Total SCF energy =   -251.787315072039
          Total MP2 energy          -252.464425417122
         Total SCF energy =   -251.787317403928
          Total MP2 energy          -252.464425416403
         Total SCF energy =   -251.787290383290
          Total MP2 energy          -252.464425183453
         Total SCF energy =   -251.787341644554
          Total MP2 energy          -252.464425184880
         Total SCF energy =   -251.787316267350
          Total MP2 energy          -252.464425442400
         Total SCF energy =   -251.787316267349
          Total MP2 energy          -252.464425442399
         Total SCF energy =   -251.787315341898
          Total MP2 energy          -252.464425401780
         Total SCF energy =   -251.787317108345
          Total MP2 energy          -252.464425402250
         Total SCF energy =   -251.787346296767
          Total MP2 energy          -252.464425239613
         Total SCF energy =   -251.787285851032
          Total MP2 energy          -252.464425239200
         Total SCF energy =   -251.787316256517
          Total MP2 energy          -252.464425431790
         Total SCF energy =   -251.787316256516
          Total MP2 energy          -252.464425431790
         Total SCF energy =   -251.787308489165
          Total MP2 energy          -252.464425284402
         Total SCF energy =   -251.787323741495
          Total MP2 energy          -252.464425284523
         Total SCF energy =   -251.787320080153
          Total MP2 energy          -252.464425388446
         Total SCF energy =   -251.787312353273
          Total MP2 energy          -252.464425389346
         Total SCF energy =   -251.787316263857
          Total MP2 energy          -252.464425435828
         Total SCF energy =   -251.787316263856
          Total MP2 energy          -252.464425435827
         Total SCF energy =   -251.787316843397
          Total MP2 energy          -252.464425418499
         Total SCF energy =   -251.787315648149
          Total MP2 energy          -252.464425419409
         Total SCF energy =   -251.787307733118
          Total MP2 energy          -252.464425256280
         Total SCF energy =   -251.787324443061
          Total MP2 energy          -252.464425255682
         Total SCF energy =   -251.787316264278
          Total MP2 energy          -252.464425436178
         Total SCF energy =   -251.787316264278
          Total MP2 energy          -252.464425436177
 Zero-Point correction to Energy  =   30.575 kcal/mol  (  0.048724 au)
 Thermal correction to Energy     =   33.190 kcal/mol  (  0.052891 au)
 Thermal correction to Enthalpy   =   33.782 kcal/mol  (  0.053835 au)
 Total Entropy                    =   66.079 cal/mol-K
   - Translational                =   38.277 cal/mol-K (mol. weight =  62.0168)
   - Rotational                   =   23.839 cal/mol-K (symmetry #  =        1)
   - Vibrational                  =    3.963 cal/mol-K
   - Translational                  =    2.979 cal/mol-K
   - Rotational                     =    2.979 cal/mol-K
   - Vibrational                    =    8.042 cal/mol-K
 P.Frequency       -0.00       -0.00        0.00        0.00        0.00        0.00
 P.Frequency      318.70      445.47      537.92      640.50      695.03      753.87
 P.Frequency      919.58      959.36     1182.81     1381.92     1425.22     1745.99
 P.Frequency     3229.94     3346.56     3814.59

 Normal Eigenvalue ||           Projected Infra Red Intensities
  Mode   [cm**-1]  || [atomic units] [(debye/angs)**2] [(KM/mol)] [arbitrary]
 ------ ---------- || -------------- ----------------- ---------- -----------
    1       -0.000 ||    0.000001           0.000         0.001       0.000
    2       -0.000 ||    0.001377           0.032         1.343       0.280
    3        0.000 ||    0.000559           0.013         0.545       0.114
    4        0.000 ||    0.003437           0.079         3.351       0.699
    5        0.000 ||    0.001355           0.031         1.320       0.276
    6        0.000 ||    0.001306           0.030         1.274       0.266
    7      318.702 ||    0.101621           2.344        99.066      20.672
    8      445.474 ||    0.007692           0.177         7.499       1.565
    9      537.915 ||    0.001968           0.045         1.918       0.400
   10      640.502 ||    0.000101           0.002         0.098       0.021
   11      695.030 ||    0.007874           0.182         7.676       1.602
   12      753.865 ||    0.077396           1.786        75.450      15.744
   13      919.582 ||    0.056376           1.301        54.958      11.468
   14      959.363 ||    0.012267           0.283        11.958       2.495
   15     1182.809 ||    0.227089           5.239       221.377      46.195
   16     1381.919 ||    0.091612           2.114        89.308      18.636
   17     1425.217 ||    0.012488           0.288        12.174       2.540
   18     1745.988 ||    0.340993           7.867       332.417      69.365
   19     3229.936 ||    0.006167           0.142         6.012       1.254
   20     3346.563 ||    0.000245           0.006         0.239       0.050
   21     3814.587 ||    0.080414           1.855        78.392      16.358
 ----------------------------------------------------------------------------

 Total times  cpu:     1194.8s     wall:     1213.9s
