============================== echo of input deck ==============================
echo
start 13R2_
title "F,H,F Reference 2"
charge 0

geometry
 zmatrix
  O
  C  1  R1
  C  2  R2  1  A1
  H  1  R5  2  A4  3  D180
  F  2  R6  3  A5  4  D180
  H  3  R7  2  A6  1  D180
  H  3  R8  2  A7  1  D0
  variables
    R1  1.329
    R2  1.363
    A1  124.5
    R5  0.994
    A4  105.4
    R6  1.385
    A5  122.5
    R7  1.078
    A6  120.0
    R8  1.099
    A7  117.6
  constants
    D0  0.000
    D180 180.0
 end
end

basis spherical
 * library aug-cc-pVDZ
end

set lindep:n_dep 0

set cphf:maxsub 95
set cphf:maxiter 999
set int:acc_std 1d-16
set fock:densityscreen f

scf
 maxiter 99
 vectors input atomic
 thresh 1d-9
 tol2e 1d-15
end

mp2
 freeze atomic
 tight
end

driver
 clear
 maxiter 99
 tight
end

set "mp2:aotol2e fock" 1d-15
set mp2:aotol2e 1d-15
set mp2:backtol 1d-15

task mp2 optimize
task mp2 frequencies

================================================================================

         Total SCF energy =   -251.781758093190
          Total MP2 energy          -252.462713284256
@ Step       Energy      Delta E   Gmax     Grms     Xrms     Xmax   Walltime
@ ---- ---------------- -------- -------- -------- -------- -------- --------
@    0    -252.46271328  0.0D+00  0.02286  0.01111  0.00000  0.00000     29.7
         Total SCF energy =   -251.787641544887
          Total MP2 energy          -252.464174543476
         Total SCF energy =   -251.786751329427
          Total MP2 energy          -252.464756828451
@    1    -252.46475683 -2.0D-03  0.00922  0.00411  0.02550  0.06819     67.5
         Total SCF energy =   -251.787236783596
          Total MP2 energy          -252.463832616186
         Total SCF energy =   -251.787615553185
          Total MP2 energy          -252.465109253593
@    2    -252.46510925 -3.5D-04  0.00200  0.00076  0.01797  0.05109    105.8
         Total SCF energy =   -251.787694420756
          Total MP2 energy          -252.465140641358
         Total SCF energy =   -251.787699986539
          Total MP2 energy          -252.465140987941
@    3    -252.46514099 -3.2D-05  0.00097  0.00038  0.00353  0.00858    140.1
         Total SCF energy =   -251.787708609283
          Total MP2 energy          -252.465145805639
         Total SCF energy =   -251.787708609283
          Total MP2 energy          -252.465145805639
@    4    -252.46514581 -4.8D-06  0.00020  0.00008  0.00171  0.00519    165.3
         Total SCF energy =   -251.787687706250
          Total MP2 energy          -252.465146294060
         Total SCF energy =   -251.787687706250
          Total MP2 energy          -252.465146294060
@    5    -252.46514629 -4.9D-07  0.00009  0.00004  0.00104  0.00255    191.0
         Total SCF energy =   -251.787692631657

 Vector   43  Occ=0.000000D+00  E= 4.670042D-01  Symmetry=a'

 Vector   44  Occ=0.000000D+00  E= 5.027222D-01  Symmetry=a"

          Total MP2 energy          -252.465146370564
         Total SCF energy =   -251.787692631657
          Total MP2 energy          -252.465146370564
@    6    -252.46514637 -7.7D-08  0.00004  0.00001  0.00037  0.00083    216.2
         Total SCF energy =   -251.787692296459

 Vector    6  Occ=2.000000D+00  E=-1.435656D+00  Symmetry=a'

 Vector    7  Occ=2.000000D+00  E=-1.045254D+00  Symmetry=a'

 Vector    8  Occ=2.000000D+00  E=-8.424506D-01  Symmetry=a'

 Vector    9  Occ=2.000000D+00  E=-7.892191D-01  Symmetry=a'

 Vector   10  Occ=2.000000D+00  E=-7.258326D-01  Symmetry=a'

 Vector   11  Occ=2.000000D+00  E=-7.193286D-01  Symmetry=a"

 Vector   12  Occ=2.000000D+00  E=-6.226384D-01  Symmetry=a'

 Vector   13  Occ=2.000000D+00  E=-6.037920D-01  Symmetry=a'

 Vector   14  Occ=2.000000D+00  E=-5.908729D-01  Symmetry=a"

 Vector   15  Occ=2.000000D+00  E=-5.784893D-01  Symmetry=a'

 Vector   16  Occ=2.000000D+00  E=-3.593441D-01  Symmetry=a"

 Vector   17  Occ=0.000000D+00  E= 3.446592D-02  Symmetry=a'

 Vector   18  Occ=0.000000D+00  E= 4.863044D-02  Symmetry=a'

 Vector   19  Occ=0.000000D+00  E= 5.695203D-02  Symmetry=a'

 Vector   20  Occ=0.000000D+00  E= 9.830091D-02  Symmetry=a'

 Vector   21  Occ=0.000000D+00  E= 1.085928D-01  Symmetry=a"

 Vector   22  Occ=0.000000D+00  E= 1.207341D-01  Symmetry=a"

 Vector   23  Occ=0.000000D+00  E= 1.216732D-01  Symmetry=a'

 Vector   24  Occ=0.000000D+00  E= 1.440190D-01  Symmetry=a'

 Vector   25  Occ=0.000000D+00  E= 1.703222D-01  Symmetry=a'

 Vector   26  Occ=0.000000D+00  E= 1.865072D-01  Symmetry=a'

 Vector   27  Occ=0.000000D+00  E= 2.067532D-01  Symmetry=a"

 Vector   28  Occ=0.000000D+00  E= 2.076662D-01  Symmetry=a'

 Vector   29  Occ=0.000000D+00  E= 2.133601D-01  Symmetry=a'

 Vector   30  Occ=0.000000D+00  E= 2.258646D-01  Symmetry=a'

 Vector   31  Occ=0.000000D+00  E= 2.363633D-01  Symmetry=a"

 Vector   32  Occ=0.000000D+00  E= 2.826666D-01  Symmetry=a'

 Vector   33  Occ=0.000000D+00  E= 3.049420D-01  Symmetry=a'

 Vector   34  Occ=0.000000D+00  E= 3.173962D-01  Symmetry=a'

 Vector   35  Occ=0.000000D+00  E= 3.269273D-01  Symmetry=a'

 Vector   36  Occ=0.000000D+00  E= 3.291739D-01  Symmetry=a"

 Vector   37  Occ=0.000000D+00  E= 3.669042D-01  Symmetry=a"

 Vector   38  Occ=0.000000D+00  E= 3.825601D-01  Symmetry=a'

 Vector   39  Occ=0.000000D+00  E= 3.872563D-01  Symmetry=a'

 Vector   40  Occ=0.000000D+00  E= 4.120763D-01  Symmetry=a'

 Vector   41  Occ=0.000000D+00  E= 4.266070D-01  Symmetry=a"

 Vector   42  Occ=0.000000D+00  E= 4.502450D-01  Symmetry=a'

 Vector   43  Occ=0.000000D+00  E= 4.669975D-01  Symmetry=a'

 Vector   44  Occ=0.000000D+00  E= 5.027221D-01  Symmetry=a"

          Total MP2 energy          -252.465146376813
         Total SCF energy =   -251.787692296459
          Total MP2 energy          -252.465146376813
@    7    -252.46514638 -6.2D-09  0.00000  0.00000  0.00008  0.00020    241.0
         Total SCF energy =   -251.787692536512

 Vector    6  Occ=2.000000D+00  E=-1.435658D+00  Symmetry=a'

 Vector    7  Occ=2.000000D+00  E=-1.045253D+00  Symmetry=a'

 Vector    8  Occ=2.000000D+00  E=-8.424521D-01  Symmetry=a'

 Vector    9  Occ=2.000000D+00  E=-7.892209D-01  Symmetry=a'

 Vector   10  Occ=2.000000D+00  E=-7.258339D-01  Symmetry=a'

 Vector   11  Occ=2.000000D+00  E=-7.193295D-01  Symmetry=a"

 Vector   12  Occ=2.000000D+00  E=-6.226398D-01  Symmetry=a'

 Vector   13  Occ=2.000000D+00  E=-6.037926D-01  Symmetry=a'

 Vector   14  Occ=2.000000D+00  E=-5.908738D-01  Symmetry=a"

 Vector   15  Occ=2.000000D+00  E=-5.784864D-01  Symmetry=a'

 Vector   16  Occ=2.000000D+00  E=-3.593427D-01  Symmetry=a"

 Vector   17  Occ=0.000000D+00  E= 3.446576D-02  Symmetry=a'

 Vector   18  Occ=0.000000D+00  E= 4.863031D-02  Symmetry=a'

 Vector   19  Occ=0.000000D+00  E= 5.695226D-02  Symmetry=a'

 Vector   20  Occ=0.000000D+00  E= 9.830091D-02  Symmetry=a'

 Vector   21  Occ=0.000000D+00  E= 1.085929D-01  Symmetry=a"

 Vector   22  Occ=0.000000D+00  E= 1.207341D-01  Symmetry=a"

 Vector   23  Occ=0.000000D+00  E= 1.216733D-01  Symmetry=a'

 Vector   24  Occ=0.000000D+00  E= 1.440187D-01  Symmetry=a'

 Vector   25  Occ=0.000000D+00  E= 1.703221D-01  Symmetry=a'

 Vector   26  Occ=0.000000D+00  E= 1.865076D-01  Symmetry=a'

 Vector   27  Occ=0.000000D+00  E= 2.067528D-01  Symmetry=a"

 Vector   28  Occ=0.000000D+00  E= 2.076661D-01  Symmetry=a'

 Vector   29  Occ=0.000000D+00  E= 2.133599D-01  Symmetry=a'

 Vector   30  Occ=0.000000D+00  E= 2.258647D-01  Symmetry=a'

 Vector   31  Occ=0.000000D+00  E= 2.363632D-01  Symmetry=a"

 Vector   32  Occ=0.000000D+00  E= 2.826686D-01  Symmetry=a'

 Vector   33  Occ=0.000000D+00  E= 3.049416D-01  Symmetry=a'

 Vector   34  Occ=0.000000D+00  E= 3.173965D-01  Symmetry=a'

 Vector   35  Occ=0.000000D+00  E= 3.269278D-01  Symmetry=a'

 Vector   36  Occ=0.000000D+00  E= 3.291740D-01  Symmetry=a"

 Vector   37  Occ=0.000000D+00  E= 3.669055D-01  Symmetry=a"

 Vector   38  Occ=0.000000D+00  E= 3.825609D-01  Symmetry=a'

 Vector   39  Occ=0.000000D+00  E= 3.872553D-01  Symmetry=a'

 Vector   40  Occ=0.000000D+00  E= 4.120749D-01  Symmetry=a'

 Vector   41  Occ=0.000000D+00  E= 4.266074D-01  Symmetry=a"

 Vector   42  Occ=0.000000D+00  E= 4.502446D-01  Symmetry=a'

 Vector   43  Occ=0.000000D+00  E= 4.669988D-01  Symmetry=a'

 Vector   44  Occ=0.000000D+00  E= 5.027210D-01  Symmetry=a"

       Multipole analysis of the density wrt the origin
       ------------------------------------------------

     L   x y z        total         open         nuclear
     -   - - -        -----         ----         -------
     0   0 0 0     -0.000000      0.000000     32.000000

     1   1 0 0     -0.158397      0.000000     -0.107635
     1   0 1 0     -0.218163      0.000000      0.266227
     1   0 0 1     -0.000000      0.000000      0.000000

     2   2 0 0    -17.534231      0.000000     90.205413
     2   1 1 0      2.540861      0.000000      9.870812
     2   1 0 1      0.000000      0.000000      0.000000
     2   0 2 0    -14.571214      0.000000    103.511392
     2   0 1 1      0.000000      0.000000      0.000000

          Total MP2 energy          -252.465146376864
         Total SCF energy =   -251.787692536512
          Total MP2 energy          -252.465146376864
@    8    -252.46514638 -5.0D-11  0.00000  0.00000  0.00001  0.00003    263.6
@    8    -252.46514638 -5.0D-11  0.00000  0.00000  0.00001  0.00003    263.6

 Output coordinates in angstroms (scale by  1.889725989 to convert to a.u.)

  No.       Tag          Charge          X              Y              Z
 ---- ---------------- ---------- -------------- -------------- --------------
    1 O                    8.0000    -1.29695101    -0.27700598     0.00000000
    2 C                    6.0000     0.00229040     0.09798509     0.00000000
    3 C                    6.0000     0.46668795     1.35508057     0.00000000
    4 H                    1.0000    -1.32768281    -1.24559427     0.00000000
    5 F                    9.0000     0.83705324    -0.98055594     0.00000000
    6 H                    1.0000     1.53951294     1.52786091     0.00000000
    7 H                    1.0000    -0.24052915     2.18127196     0.00000000

         Total SCF energy =   -251.787692536512
          Total MP2 energy          -252.465146376864
         Total SCF energy =   -251.787718932185
          Total MP2 energy          -252.465146164691
         Total SCF energy =   -251.787665688615
          Total MP2 energy          -252.465146163630
         Total SCF energy =   -251.787668799991
          Total MP2 energy          -252.465146052611
         Total SCF energy =   -251.787715597054
          Total MP2 energy          -252.465146051509
         Total SCF energy =   -251.787692514034
          Total MP2 energy          -252.465146369526
         Total SCF energy =   -251.787692514033
          Total MP2 energy          -252.465146369525
         Total SCF energy =   -251.787699106429
          Total MP2 energy          -252.465146069926
         Total SCF energy =   -251.787685317892
          Total MP2 energy          -252.465146068875
         Total SCF energy =   -251.787701850669
          Total MP2 energy          -252.465145934556
         Total SCF energy =   -251.787682309120
          Total MP2 energy          -252.465145933755
         Total SCF energy =   -251.787692436118
          Total MP2 energy          -252.465146305594
         Total SCF energy =   -251.787692436118
          Total MP2 energy          -252.465146305593
         Total SCF energy =   -251.787683573817
          Total MP2 energy          -252.465146014099
         Total SCF energy =   -251.787700740977
          Total MP2 energy          -252.465146014903
         Total SCF energy =   -251.787664573343
          Total MP2 energy          -252.465145960888
         Total SCF energy =   -251.787719642890
          Total MP2 energy          -252.465145960486
         Total SCF energy =   -251.787692477328
          Total MP2 energy          -252.465146340987
         Total SCF energy =   -251.787692477327
          Total MP2 energy          -252.465146340986
         Total SCF energy =   -251.787690724326
          Total MP2 energy          -252.465146348686
         Total SCF energy =   -251.787694271473
          Total MP2 energy          -252.465146349094
         Total SCF energy =   -251.787717305856
          Total MP2 energy          -252.465146116305
         Total SCF energy =   -251.787667242733
          Total MP2 energy          -252.465146117100
         Total SCF energy =   -251.787692528948
          Total MP2 energy          -252.465146376072
         Total SCF energy =   -251.787692528947
          Total MP2 energy          -252.465146376072
         Total SCF energy =   -251.787671770201
          Total MP2 energy          -252.465146280243
         Total SCF energy =   -251.787713102837
          Total MP2 energy          -252.465146280723
         Total SCF energy =   -251.787715790381
          Total MP2 energy          -252.465146247562
         Total SCF energy =   -251.787669017770
          Total MP2 energy          -252.465146247270
         Total SCF energy =   -251.787692517827
          Total MP2 energy          -252.465146365526
         Total SCF energy =   -251.787692517828
          Total MP2 energy          -252.465146365526
         Total SCF energy =   -251.787684144350
          Total MP2 energy          -252.465146189663
         Total SCF energy =   -251.787700553084
          Total MP2 energy          -252.465146188862
         Total SCF energy =   -251.787691638506
          Total MP2 energy          -252.465146347620
         Total SCF energy =   -251.787693367252
          Total MP2 energy          -252.465146348947
         Total SCF energy =   -251.787692523604
          Total MP2 energy          -252.465146368035
         Total SCF energy =   -251.787692523605
          Total MP2 energy          -252.465146368036
         Total SCF energy =   -251.787698151851
          Total MP2 energy          -252.465146282911
         Total SCF energy =   -251.787686728328
          Total MP2 energy          -252.465146284162
         Total SCF energy =   -251.787686021488
          Total MP2 energy          -252.465146254764
         Total SCF energy =   -251.787698803373
          Total MP2 energy          -252.465146255196
         Total SCF energy =   -251.787692523324
          Total MP2 energy          -252.465146367792
         Total SCF energy =   -251.787692523325
          Total MP2 energy          -252.465146367792
 Zero-Point correction to Energy  =   30.238 kcal/mol  (  0.048188 au)
 Thermal correction to Energy     =   33.066 kcal/mol  (  0.052695 au)
 Thermal correction to Enthalpy   =   33.659 kcal/mol  (  0.053638 au)
 Total Entropy                    =   68.082 cal/mol-K
   - Translational                =   38.277 cal/mol-K (mol. weight =  62.0168)
   - Rotational                   =   23.851 cal/mol-K (symmetry #  =        1)
   - Vibrational                  =    5.955 cal/mol-K
   - Translational                  =    2.979 cal/mol-K
   - Rotational                     =    2.979 cal/mol-K
   - Vibrational                    =    8.430 cal/mol-K
 P.Frequency       -0.00       -0.00       -0.00       -0.00        0.00        0.00
 P.Frequency      113.07      429.69      520.41      622.87      713.41      772.73
 P.Frequency      893.26      959.05     1193.78     1341.38     1413.15     1777.98
 P.Frequency     3239.95     3361.41     3809.86

 Normal Eigenvalue ||           Projected Infra Red Intensities
  Mode   [cm**-1]  || [atomic units] [(debye/angs)**2] [(KM/mol)] [arbitrary]
 ------ ---------- || -------------- ----------------- ---------- -----------
    1       -0.000 ||    0.000289           0.007         0.282       0.055
    2       -0.000 ||    0.000002           0.000         0.002       0.000
    3       -0.000 ||    0.000178           0.004         0.173       0.034
    4       -0.000 ||    0.000023           0.001         0.022       0.004
    5        0.000 ||    0.000075           0.002         0.073       0.014
    6        0.000 ||    0.000177           0.004         0.173       0.034
    7      113.066 ||    0.108388           2.501       105.662      20.706
    8      429.694 ||    0.000336           0.008         0.328       0.064
    9      520.414 ||    0.019370           0.447        18.883       3.700
   10      622.865 ||    0.001668           0.038         1.626       0.319
   11      713.409 ||    0.010384           0.240        10.123       1.984
   12      772.731 ||    0.080701           1.862        78.671      15.417
   13      893.257 ||    0.073231           1.689        71.389      13.990
   14      959.050 ||    0.035263           0.814        34.377       6.737
   15     1193.785 ||    0.020954           0.483        20.427       4.003
   16     1341.379 ||    0.324755           7.492       316.587      62.040
   17     1413.152 ||    0.000874           0.020         0.852       0.167
   18     1777.981 ||    0.277035           6.391       270.068      52.924
   19     3239.947 ||    0.006025           0.139         5.874       1.151
   20     3361.414 ||    0.000144           0.003         0.141       0.028
   21     3809.863 ||    0.139398           3.216       135.892      26.630
 ----------------------------------------------------------------------------

 Total times  cpu:     1220.1s     wall:     1239.7s
