 Gaussian 16, Revision A.03,
 Gaussian 16:  ES64L-G16RevA.03 25-Dec-2016

 -------------------------------------------------------
 # MP2/6-31G** Opt=(Recalc=50) Freq=(vibrot, anharmonic)
 -------------------------------------------------------

 -------
 Fme,H,H
 -------
 Symbolic Z-matrix:
 Charge =  0 Multiplicity = 1

 SCF Done:  E(RHF) =  -601.241175309     A.U. after   14 cycles
 E2 =    -0.1391360162D+01 EUMP2 =    -0.60263253547088D+03
 E2 =    -0.1391360162D+01 EUMP2 =    -0.60263253547088D+03
 SCF Done:  E(RHF) =  -601.250446708     A.U. after   13 cycles
 E2 =    -0.1389736246D+01 EUMP2 =    -0.60264018295345D+03
 SCF Done:  E(RHF) =  -601.249299227     A.U. after   12 cycles
 E2 =    -0.1391067971D+01 EUMP2 =    -0.60264036719868D+03
 SCF Done:  E(RHF) =  -601.249462286     A.U. after   11 cycles
 E2 =    -0.1390922264D+01 EUMP2 =    -0.60264038454942D+03
 SCF Done:  E(RHF) =  -601.249435835     A.U. after   10 cycles
 E2 =    -0.1390948928D+01 EUMP2 =    -0.60264038476247D+03
 Optimization completed.
    -- Stationary point found.

 1\1\GINC-N2294\FOpt\RMP2-FC\6-31G(d,p)\C4H3F3O2\GDS001\27-Oct-2020\0\\
 # MP2/6-31G** Opt=(Recalc=50) Freq=(vibrot, anharmonic)\\Fme,H,H\\0,1\
 C,-0.3913235645,3.3897619946,-0.0804374537\C,-0.2515750953,2.072222060
 1,0.2311315757\C,1.0604121356,1.4714725298,0.144451141\O,0.5906317878,
 4.1970449129,-0.4669711496\O,2.0786367864,2.1023497689,-0.2036062722\C
 ,-1.7161036283,4.1089425722,-0.0216281719\H,1.4090720431,3.6303381103,
 -0.4719152586\H,-1.1064715734,1.4928064915,0.5360654747\H,1.1518890331
 ,0.4081863946,0.3998147884\F,-1.6583202379,5.1350086981,0.847928577\F,

 Normal termination of Gaussian 16 at Tue Oct 27 13:20:47 2020.

 ----------------------------------------------------------------------
 #N Geom=AllCheck Guess=TCheck SCRF=Check GenChk RMP2(FC)/6-31G(d,p) Fr
 eq
 ----------------------------------------------------------------------

 Structure from the checkpoint file:  "14.chk"
 -------
 Fme,H,H
 -------
 Charge =  0 Multiplicity = 1

                         Standard orientation:
 ---------------------------------------------------------------------
 Center     Atomic      Atomic             Coordinates (Angstroms)
 Number     Number       Type             X           Y           Z
 ---------------------------------------------------------------------
      1          6           0        0.196510   -0.103030    0.000048
      2          6           0        1.054134    0.953851    0.000036
      3          6           0        2.476611    0.696397   -0.000007
      4          8           0        0.553160   -1.382933    0.000017
      5          8           0        2.962597   -0.452406   -0.000018
      6          6           0       -1.303249    0.059588    0.000003
      7          1           0        1.548648   -1.377502   -0.000017
      8          1           0        0.674116    1.961394    0.000066
      9          1           0        3.151131    1.561948   -0.000030
     10          9           0       -1.841055   -0.519151   -1.090000
     11          9           0       -1.655915    1.361431    0.000757
     12          9           0       -1.841251   -0.520498    1.089187
 ---------------------------------------------------------------------

 SCF Done:  E(RHF) =  -601.249435835     A.U. after    1 cycles
 E2 =    -0.1390948925D+01 EUMP2 =    -0.60264038475996D+03
 E2 =    -0.1390948925D+01 EUMP2 =    -0.60264038475996D+03
 SCF Done:  E(RHF) =  -601.249435650     A.U. after    9 cycles
 E2 =    -0.1390949094D+01 EUMP2 =    -0.60264038474397D+03
 E2 =    -0.1390949094D+01 EUMP2 =    -0.60264038474397D+03
 SCF Done:  E(RHF) =  -601.249435684     A.U. after    9 cycles
 E2 =    -0.1390949081D+01 EUMP2 =    -0.60264038476481D+03
 E2 =    -0.1390949081D+01 EUMP2 =    -0.60264038476481D+03
 SCF Done:  E(RHF) =  -601.249435575     A.U. after    9 cycles
 E2 =    -0.1390949088D+01 EUMP2 =    -0.60264038466298D+03
 E2 =    -0.1390949088D+01 EUMP2 =    -0.60264038466298D+03
 SCF Done:  E(RHF) =  -601.249435599     A.U. after    9 cycles
 E2 =    -0.1390949084D+01 EUMP2 =    -0.60264038468312D+03
 E2 =    -0.1390949084D+01 EUMP2 =    -0.60264038468312D+03
 E2 =    -0.1390960055D+01 EUMP2 =    -0.60264038453773D+03
 E2 =    -0.1390960055D+01 EUMP2 =    -0.60264038453773D+03
 E2 =    -0.1390938081D+01 EUMP2 =    -0.60264038449714D+03
 E2 =    -0.1390938081D+01 EUMP2 =    -0.60264038449714D+03
 SCF Done:  E(RHF) =  -601.249029221     A.U. after   10 cycles
 E2 =    -0.1391336164D+01 EUMP2 =    -0.60264036538439D+03
 E2 =    -0.1391336164D+01 EUMP2 =    -0.60264036538439D+03
 SCF Done:  E(RHF) =  -601.249801090     A.U. after   10 cycles
 E2 =    -0.1390563993D+01 EUMP2 =    -0.60264036508245D+03
 E2 =    -0.1390563993D+01 EUMP2 =    -0.60264036508245D+03
 SCF Done:  E(RHF) =  -601.249527453     A.U. after   10 cycles
 E2 =    -0.1390836832D+01 EUMP2 =    -0.60264036428517D+03
 E2 =    -0.1390836832D+01 EUMP2 =    -0.60264036428517D+03
 SCF Done:  E(RHF) =  -601.249301199     A.U. after   10 cycles
 E2 =    -0.1391063086D+01 EUMP2 =    -0.60264036428413D+03
 E2 =    -0.1391063086D+01 EUMP2 =    -0.60264036428413D+03
 SCF Done:  E(RHF) =  -601.249461401     A.U. after   10 cycles
 E2 =    -0.1390856824D+01 EUMP2 =    -0.60264031822510D+03
 E2 =    -0.1390856824D+01 EUMP2 =    -0.60264031822510D+03
 SCF Done:  E(RHF) =  -601.249276008     A.U. after   10 cycles
 E2 =    -0.1391044793D+01 EUMP2 =    -0.60264032080131D+03
 E2 =    -0.1391044793D+01 EUMP2 =    -0.60264032080131D+03
 SCF Done:  E(RHF) =  -601.248922104     A.U. after   10 cycles
 E2 =    -0.1391392174D+01 EUMP2 =    -0.60264031427840D+03
 E2 =    -0.1391392174D+01 EUMP2 =    -0.60264031427840D+03
 SCF Done:  E(RHF) =  -601.249803953     A.U. after   10 cycles
 E2 =    -0.1390504691D+01 EUMP2 =    -0.60264030864397D+03
 E2 =    -0.1390504691D+01 EUMP2 =    -0.60264030864397D+03
 SCF Done:  E(RHF) =  -601.249472249     A.U. after   10 cycles
 E2 =    -0.1390835620D+01 EUMP2 =    -0.60264030786853D+03
 E2 =    -0.1390835620D+01 EUMP2 =    -0.60264030786853D+03
 SCF Done:  E(RHF) =  -601.249246351     A.U. after   10 cycles
 E2 =    -0.1391064436D+01 EUMP2 =    -0.60264031078634D+03
 E2 =    -0.1391064436D+01 EUMP2 =    -0.60264031078634D+03

 Alpha  occ. eigenvalues --  -26.36366 -26.35737 -26.35735 -20.63199 -20.59136
 Alpha  occ. eigenvalues --  -11.53842 -11.38038 -11.37144 -11.26551  -1.73933
 Alpha  occ. eigenvalues --   -1.64754  -1.64334  -1.45774  -1.40069  -1.11290
 Alpha  occ. eigenvalues --   -1.01995  -0.91241  -0.86417  -0.83174  -0.82730
 Alpha  occ. eigenvalues --   -0.78867  -0.72503  -0.71958  -0.70986  -0.69061
 Alpha  occ. eigenvalues --   -0.67354  -0.67104  -0.65739  -0.65518  -0.61724
 Alpha  occ. eigenvalues --   -0.60969  -0.57732  -0.55184  -0.45694  -0.38916
 Alpha virt. eigenvalues --    0.05770   0.22344   0.23534   0.27654   0.29233
 Alpha virt. eigenvalues --    0.36137   0.39004   0.41354   0.41777   0.44733
 Alpha virt. eigenvalues --    0.48800   0.55090   0.58869   0.67620   0.69340

 Mulliken charges:
               1
     1  C    0.211328
     2  C   -0.259863
     3  C    0.273634
     4  O   -0.527644
     5  O   -0.456136
     6  C    0.923516
     7  H    0.388085
     8  H    0.167103
     9  H    0.122669
    10  F   -0.277502
    11  F   -0.287690
    12  F   -0.277501
 Sum of Mulliken charges =  -0.00000

 Dipole moment (field-independent basis, Debye):
    X=              1.0312    Y=              2.1774    Z=              0.0001  Tot=              2.4093
 Quadrupole moment (field-independent basis, Debye-Ang):
   XX=            -52.8275   YY=            -47.5377   ZZ=            -49.5203
   XY=              3.7449   XZ=             -0.0002   YZ=              0.0001

  Exact polarizability:  63.829   6.040  53.289  -0.001   0.000  26.910
 Approx polarizability:  47.546   3.441  50.241  -0.001  -0.000  27.653

                      1                      2                      3
                      A                      A                      A
 Frequencies --     45.6103               119.0747               190.8256
 Red. masses --      7.4308                10.6907                 9.7707
 Frc consts  --      0.0091                 0.0893                 0.2096
 IR Inten    --      1.1556                 2.3589                 3.7460

                      4                      5                      6
                      A                      A                      A
 Frequencies --    262.3477               285.7531               316.7436
 Red. masses --      4.0987                10.1770                 4.2057
 Frc consts  --      0.1662                 0.4896                 0.2486
 IR Inten    --      2.4103                 1.8555                 2.1560

                      7                      8                      9
                      A                      A                      A
 Frequencies --    336.1891               424.0677               513.0738
 Red. masses --      8.2283                11.3945                14.2438
 Frc consts  --      0.5479                 1.2073                 2.2092
 IR Inten    --      2.0512                 0.0546                 3.2120

                     10                     11                     12
                      A                      A                      A
 Frequencies --    585.2041               597.9334               730.1815
 Red. masses --     12.8740                 8.8148                 8.1958
 Frc consts  --      2.5976                 1.8568                 2.5746
 IR Inten    --     27.3741                38.9651                 0.1359

                     13                     14                     15
                      A                      A                      A
 Frequencies --    766.3612               799.5949               899.2789
 Red. masses --     12.9190                 1.1367                 1.1312
 Frc consts  --      4.4704                 0.4282                 0.5390
 IR Inten    --      1.9928                56.0731                83.4956

                     16                     17                     18
                      A                      A                      A
 Frequencies --    929.5737              1025.0090              1069.0657
 Red. masses --      5.6636                 1.6249                 2.9836
 Frc consts  --      2.8835                 1.0059                 2.0091
 IR Inten    --      6.8103                 1.4515                18.6198

                     19                     20                     21
                      A                      A                      A
 Frequencies --   1142.2633              1251.5146              1271.0576
 Red. masses --      2.0397                12.7462                11.6221
 Frc consts  --      1.5680                11.7626                11.0628
 IR Inten    --     68.2962               277.3354               304.4613

                     22                     23                     24
                      A                      A                      A
 Frequencies --   1346.4907              1424.9864              1446.1185
 Red. masses --      3.0436                 1.4486                 1.3647
 Frc consts  --      3.2512                 1.7331                 1.6815
 IR Inten    --    343.0593               114.8248                36.8820

                     25                     26                     27
                      A                      A                      A
 Frequencies --   1504.0028              1700.0905              1740.8799
 Red. masses --      5.2189                 4.4963                 6.2458
 Frc consts  --      6.9554                 7.6568                11.1526
 IR Inten    --    108.5535                86.4919               150.8913

                     28                     29                     30
                      A                      A                      A
 Frequencies --   3107.0667              3292.9454              3340.8148
 Red. masses --      1.0891                 1.0680                 1.0937
 Frc consts  --      6.1947                 6.8235                 7.1918
 IR Inten    --     95.5134               188.5375                 1.4338

 - Thermochemistry -
 -------------------
 Temperature   298.150 Kelvin.  Pressure   1.00000 Atm.
 Atom     1 has atomic number  6 and mass  12.00000

 Molecular mass:   140.00851 amu.
 Principal axes and moments of inertia in atomic units:
                           1         2         3
     Eigenvalues --   533.972571754.108111965.89672
           X            0.99991   0.01330  -0.00000
           Y           -0.01330   0.99991   0.00000
           Z            0.00000  -0.00000   1.00000
 This molecule is an asymmetric top.
 Rotational symmetry number  1.
 Warning -- assumption of classical behavior for rotation
           may cause significant error
 Rotational temperatures (Kelvin)      0.16221     0.04938     0.04406
 Rotational constants (GHZ):           3.37984     1.02887     0.91802
 Zero-point vibrational energy     194178.6 (Joules/Mol)
                                   46.40979 (Kcal/Mol)
 Warning -- explicit consideration of  11 degrees of freedom as
           vibrations may cause significant error
 Vibrational temperatures:     65.62   171.32   274.56   377.46   411.13
          (Kelvin)            455.72   483.70   610.14   738.20   841.98
                              860.29  1050.57  1102.62  1150.44  1293.86
                             1337.45  1474.76  1538.15  1643.46  1800.65
                             1828.77  1937.30  2050.24  2080.64  2163.92
                             2446.05  2504.74  4470.38  4737.81  4806.69

 Zero-point correction=                           0.073959 (Hartree/Particle)
 Thermal correction to Energy=                    0.081935
 Thermal correction to Enthalpy=                  0.082879
 Thermal correction to Gibbs Free Energy=         0.040346
 Sum of electronic and zero-point Energies=           -602.566426
 Sum of electronic and thermal Energies=              -602.558450
 Sum of electronic and thermal Enthalpies=            -602.557506
 Sum of electronic and thermal Free Energies=         -602.600039

                     E (Thermal)             CV                S
                      KCal/Mol        Cal/Mol-Kelvin    Cal/Mol-Kelvin
 Total                   51.415             27.942             89.518
 Electronic               0.000              0.000              0.000
 Translational            0.889              2.981             40.721
 Rotational               0.889              2.981             29.000
 Vibrational             49.637             21.981             19.797
 Vibration     1          0.595              1.979              4.999
 Vibration     2          0.609              1.933              3.115
 Vibration     3          0.634              1.853              2.220
 Vibration     4          0.670              1.742              1.646
 Vibration     5          0.684              1.700              1.499
 Vibration     6          0.704              1.642              1.327
 Vibration     7          0.717              1.603              1.230
 Vibration     8          0.786              1.418              0.878
 Vibration     9          0.868              1.221              0.626
 Vibration    10          0.942              1.063              0.476
 Vibration    11          0.956              1.036              0.453

 Error termination via Lnk1e in /sw/contrib/gaussian/g16/A03/g16/l717.exe at Tue Oct 27 16:37:53 2020.
