============================== echo of input deck ==============================
echo
start 14C_
title "H,MeF,H Chelate"
charge 0

geometry
 zmatrix
  O
  C  1  R1
  C  2  R2  1  A1
  C  3  R3  2  A2  1  D0
  O  4  R4  3  A3  2  D0
  H  1  R5  2  A4  3  D0
  H  2  R6  3  A5  4  D180
  C  3  R7  2  A6  1  D180
  H  4  R8  3  A7  2  D180
  F  8  R9  3  A8  2  D1
  F  8  R10 3  A9  2  D2
  F  8  R11 3  A10 2  D3
  variables
    R1  1.329
    R2  1.363
    A1  124.5
    R3  1.440
    A2  119.5
    R4  1.249
    A3  123.5
    R5  0.994
    A4  105.4
    R6  1.085
    A5  122.5
    R7  1.478
    A6  120.0
    R8  1.099
    A7  117.6
    R9  1.300
    A8  110.0
    D1  90.00
    R10 1.300
    A9  110.0
    D2  -30.0
    R11 1.300
    A10 110.0
    D3  -150.0
  constants
    D0  0.000
    D180 180.0
 end
end

basis spherical
 * library aug-cc-pVDZ
end

set lindep:n_dep 0

set cphf:maxsub 95
set cphf:maxiter 999
set int:acc_std 1d-16
set fock:densityscreen f

scf
 maxiter 99
 vectors input atomic
 thresh 1d-9
 tol2e 1d-15
end

mp2
 freeze atomic
 tight
end

driver
 clear
 maxiter 99
 tight
end

set "mp2:aotol2e fock" 1d-15
set mp2:aotol2e 1d-15
set mp2:backtol 1d-15

task mp2 optimize
task mp2 frequencies

================================================================================

         Total SCF energy =   -601.326542065378
          Total MP2 energy          -602.853006658884
@ Step       Energy      Delta E   Gmax     Grms     Xrms     Xmax   Walltime
@ ---- ---------------- -------- -------- -------- -------- -------- --------
@    0    -602.85300666  0.0D+00  0.06430  0.02130  0.00000  0.00000    395.3
         Total SCF energy =   -601.315259629841
          Total MP2 energy          -602.857965486863
         Total SCF energy =   -601.328621753780
          Total MP2 energy          -602.863965647999
@    1    -602.86396565 -1.1D-02  0.01879  0.00734  0.06322  0.19625    928.8
         Total SCF energy =   -601.310875312350
          Total MP2 energy          -602.857315989016
         Total SCF energy =   -601.326963441503
          Total MP2 energy          -602.865676711520
@    2    -602.86567671 -1.7D-03  0.00444  0.00161  0.02938  0.06678   1463.0
         Total SCF energy =   -601.324871091912
          Total MP2 energy          -602.864716110315
         Total SCF energy =   -601.326815416575
          Total MP2 energy          -602.865784425246
@    3    -602.86578443 -1.1D-04  0.00326  0.00107  0.00785  0.02318   1994.8
         Total SCF energy =   -601.326933296856
          Total MP2 energy          -602.865842851156
         Total SCF energy =   -601.326928724646
          Total MP2 energy          -602.865853288492
@    4    -602.86585329 -6.9D-05  0.00170  0.00072  0.00982  0.02177   2489.1
         Total SCF energy =   -601.327179949951
          Total MP2 energy          -602.865761757756
         Total SCF energy =   -601.327080304050
          Total MP2 energy          -602.865885471648
@    5    -602.86588547 -3.2D-05  0.00107  0.00043  0.00578  0.01562   2985.0
         Total SCF energy =   -601.327006213381
          Total MP2 energy          -602.865929558435
         Total SCF energy =   -601.326702953833
          Total MP2 energy          -602.865987011766
@    6    -602.86598701 -1.0D-04  0.00349  0.00113  0.03626  0.11757   3494.3
         Total SCF energy =   -601.326670193269
          Total MP2 energy          -602.866133416457
         Total SCF energy =   -601.326620881101
          Total MP2 energy          -602.866140487211
@    7    -602.86614049 -1.5D-04  0.00518  0.00161  0.06208  0.21730   4009.4
         Total SCF energy =   -601.327129203945
          Total MP2 energy          -602.866381255362
         Total SCF energy =   -601.327129203945
          Total MP2 energy          -602.866381255362
@    8    -602.86638126 -2.4D-04  0.00351  0.00161  0.05634  0.17661   4399.1
         Total SCF energy =   -601.328202377828
          Total MP2 energy          -602.866621308092
         Total SCF energy =   -601.328049405619
          Total MP2 energy          -602.866640157987
@    9    -602.86664016 -2.6D-04  0.00345  0.00109  0.04591  0.14351   4919.3
         Total SCF energy =   -601.328301113012
          Total MP2 energy          -602.866813724772
         Total SCF energy =   -601.328321466614
          Total MP2 energy          -602.866819097229
@   10    -602.86681910 -1.8D-04  0.00166  0.00057  0.06840  0.19951   5444.9
         Total SCF energy =   -601.328326209437
          Total MP2 energy          -602.866831271138
         Total SCF energy =   -601.328350494774
          Total MP2 energy          -602.866849666494
@   11    -602.86684967 -3.1D-05  0.00091  0.00033  0.03166  0.09405   5952.0
         Total SCF energy =   -601.328459212995
          Total MP2 energy          -602.866857852970
         Total SCF energy =   -601.328433991330
          Total MP2 energy          -602.866859093106
@   12    -602.86685909 -9.4D-06  0.00034  0.00013  0.00551  0.01544   6441.3
         Total SCF energy =   -601.328469023097
          Total MP2 energy          -602.866859770519
         Total SCF energy =   -601.328458390241
          Total MP2 energy          -602.866859953413
@   13    -602.86685995 -8.6D-07  0.00015  0.00005  0.00140  0.00384   6916.3
         Total SCF energy =   -601.328449505924
          Total MP2 energy          -602.866860096523
         Total SCF energy =   -601.328449505924
          Total MP2 energy          -602.866860096523
@   14    -602.86686010 -1.4D-07  0.00008  0.00002  0.00130  0.00360   7258.8
         Total SCF energy =   -601.328437712861
          Total MP2 energy          -602.866860110820
         Total SCF energy =   -601.328437712861
          Total MP2 energy          -602.866860110820
@   15    -602.86686011 -1.4D-08  0.00002  0.00001  0.00012  0.00032   7599.3
         Total SCF energy =   -601.328439575148

 Vector   81  Occ=0.000000D+00  E= 4.552439D-01

 Vector   82  Occ=0.000000D+00  E= 4.745729D-01

 Vector   83  Occ=0.000000D+00  E= 4.806858D-01

 Vector   84  Occ=0.000000D+00  E= 4.842435D-01

 Vector   85  Occ=0.000000D+00  E= 4.881994D-01

 Vector   86  Occ=0.000000D+00  E= 5.152634D-01

          Total MP2 energy          -602.866860111780
         Total SCF energy =   -601.328439575148
          Total MP2 energy          -602.866860111780
@   16    -602.86686011 -9.6D-10  0.00000  0.00000  0.00004  0.00011   7935.4
         Total SCF energy =   -601.328439313173

 Vector   13  Occ=2.000000D+00  E=-1.466373D+00

 Vector   14  Occ=2.000000D+00  E=-1.411010D+00

 Vector   15  Occ=2.000000D+00  E=-1.136971D+00

 Vector   16  Occ=2.000000D+00  E=-9.821760D-01

 Vector   17  Occ=2.000000D+00  E=-9.360679D-01

 Vector   18  Occ=2.000000D+00  E=-8.619320D-01

 Vector   19  Occ=2.000000D+00  E=-8.357614D-01

 Vector   20  Occ=2.000000D+00  E=-8.281005D-01

 Vector   21  Occ=2.000000D+00  E=-8.232164D-01

 Vector   22  Occ=2.000000D+00  E=-7.317890D-01

 Vector   23  Occ=2.000000D+00  E=-7.194165D-01

 Vector   24  Occ=2.000000D+00  E=-7.045162D-01

 Vector   25  Occ=2.000000D+00  E=-6.829413D-01

 Vector   26  Occ=2.000000D+00  E=-6.801699D-01

 Vector   27  Occ=2.000000D+00  E=-6.718420D-01

 Vector   28  Occ=2.000000D+00  E=-6.645711D-01

 Vector   29  Occ=2.000000D+00  E=-6.589502D-01

 Vector   30  Occ=2.000000D+00  E=-6.431647D-01

 Vector   31  Occ=2.000000D+00  E=-6.274958D-01

 Vector   32  Occ=2.000000D+00  E=-5.808975D-01

 Vector   33  Occ=2.000000D+00  E=-5.602550D-01

 Vector   34  Occ=2.000000D+00  E=-4.649952D-01

 Vector   35  Occ=2.000000D+00  E=-4.010881D-01

 Vector   36  Occ=0.000000D+00  E= 3.424102D-02

 Vector   37  Occ=0.000000D+00  E= 4.300592D-02

 Vector   38  Occ=0.000000D+00  E= 4.471571D-02

 Vector   39  Occ=0.000000D+00  E= 5.749306D-02

 Vector   40  Occ=0.000000D+00  E= 7.947949D-02

 Vector   41  Occ=0.000000D+00  E= 8.056077D-02

 Vector   42  Occ=0.000000D+00  E= 9.462066D-02

 Vector   43  Occ=0.000000D+00  E= 1.058544D-01

 Vector   44  Occ=0.000000D+00  E= 1.202768D-01

 Vector   45  Occ=0.000000D+00  E= 1.311075D-01

 Vector   46  Occ=0.000000D+00  E= 1.387853D-01

 Vector   47  Occ=0.000000D+00  E= 1.391898D-01

 Vector   48  Occ=0.000000D+00  E= 1.502677D-01

 Vector   49  Occ=0.000000D+00  E= 1.567332D-01

 Vector   50  Occ=0.000000D+00  E= 1.669615D-01

 Vector   51  Occ=0.000000D+00  E= 1.747492D-01

 Vector   52  Occ=0.000000D+00  E= 1.756780D-01

 Vector   53  Occ=0.000000D+00  E= 1.848092D-01

 Vector   54  Occ=0.000000D+00  E= 2.142373D-01

 Vector   55  Occ=0.000000D+00  E= 2.374128D-01

 Vector   56  Occ=0.000000D+00  E= 2.464956D-01

 Vector   57  Occ=0.000000D+00  E= 2.493245D-01

 Vector   58  Occ=0.000000D+00  E= 2.519801D-01

 Vector   59  Occ=0.000000D+00  E= 2.531701D-01

 Vector   60  Occ=0.000000D+00  E= 2.630995D-01

 Vector   61  Occ=0.000000D+00  E= 2.739418D-01

 Vector   62  Occ=0.000000D+00  E= 2.974631D-01

 Vector   63  Occ=0.000000D+00  E= 3.131045D-01

 Vector   64  Occ=0.000000D+00  E= 3.194600D-01

 Vector   65  Occ=0.000000D+00  E= 3.200361D-01

 Vector   66  Occ=0.000000D+00  E= 3.242316D-01

 Vector   67  Occ=0.000000D+00  E= 3.273851D-01

 Vector   68  Occ=0.000000D+00  E= 3.402493D-01

 Vector   69  Occ=0.000000D+00  E= 3.541152D-01

 Vector   70  Occ=0.000000D+00  E= 3.565577D-01

 Vector   71  Occ=0.000000D+00  E= 3.689034D-01

 Vector   72  Occ=0.000000D+00  E= 3.742713D-01

 Vector   73  Occ=0.000000D+00  E= 3.866851D-01

 Vector   74  Occ=0.000000D+00  E= 3.924161D-01

 Vector   75  Occ=0.000000D+00  E= 3.978609D-01

 Vector   76  Occ=0.000000D+00  E= 4.137165D-01

 Vector   77  Occ=0.000000D+00  E= 4.205042D-01

 Vector   78  Occ=0.000000D+00  E= 4.235759D-01

 Vector   79  Occ=0.000000D+00  E= 4.387073D-01

 Vector   80  Occ=0.000000D+00  E= 4.514696D-01

 Vector   81  Occ=0.000000D+00  E= 4.552441D-01

 Vector   82  Occ=0.000000D+00  E= 4.745732D-01

 Vector   83  Occ=0.000000D+00  E= 4.806855D-01

 Vector   84  Occ=0.000000D+00  E= 4.842436D-01

 Vector   85  Occ=0.000000D+00  E= 4.881992D-01

 Vector   86  Occ=0.000000D+00  E= 5.152630D-01

       Multipole analysis of the density wrt the origin
       ------------------------------------------------

     L   x y z        total         open         nuclear
     -   - - -        -----         ----         -------
     0   0 0 0     -0.000000      0.000000     70.000000

     1   1 0 0     -0.312310      0.000000      0.427454
     1   0 1 0     -0.090583      0.000000     -1.369158
     1   0 0 1      0.038606      0.000000     -0.210588

     2   2 0 0    -35.267916      0.000000    268.398532
     2   1 1 0     -1.206817      0.000000     -5.622960
     2   1 0 1     -0.327552      0.000000    -23.442800
     2   0 2 0    -44.834025      0.000000    682.989463
     2   0 1 1      0.182643      0.000000     -2.425145

          Total MP2 energy          -602.866860111809
         Total SCF energy =   -601.328439313173
          Total MP2 energy          -602.866860111809
@   17    -602.86686011 -2.9D-11  0.00000  0.00000  0.00001  0.00003   8262.3
@   17    -602.86686011 -2.9D-11  0.00000  0.00000  0.00001  0.00003   8262.3

 Output coordinates in angstroms (scale by  1.889725989 to convert to a.u.)

  No.       Tag          Charge          X              Y              Z
 ---- ---------------- ---------- -------------- -------------- --------------
    1 O                    8.0000    -1.27839109     2.29142188     0.14310630
    2 C                    6.0000    -1.20596428     0.96794975     0.14105551
    3 C                    6.0000    -0.02505434     0.27406379     0.00040191
    4 C                    6.0000     1.22783486     0.99902622    -0.15632627
    5 O                    8.0000     1.28106898     2.24703378    -0.16923476
    6 H                    1.0000    -0.33785338     2.61701828     0.02657410
    7 H                    1.0000    -2.16898581     0.46545541     0.26124260
    8 C                    6.0000    -0.00125634    -1.21654701     0.00514833
    9 H                    1.0000     2.15868338     0.40913519    -0.26697565
   10 F                    9.0000     0.51863925    -1.71918986    -1.15272117
   11 F                    9.0000    -1.23686772    -1.75836039     0.15882855
   12 F                    9.0000     0.78262540    -1.70808729     1.00890054

         Total SCF energy =   -601.328439313173
          Total MP2 energy          -602.866860111809
         Total SCF energy =   -601.328468771345
          Total MP2 energy          -602.866859878756
         Total SCF energy =   -601.328409350081
          Total MP2 energy          -602.866859878988
         Total SCF energy =   -601.328413301020
          Total MP2 energy          -602.866859846923
         Total SCF energy =   -601.328464799472
         Total SCF energy =   -601.328438214041
          Total MP2 energy          -602.866860018842
         Total SCF energy =   -601.328440159664
          Total MP2 energy          -602.866860018657
         Total SCF energy =   -601.328438296281
          Total MP2 energy          -602.866860054979
         Total SCF energy =   -601.328440182640
          Total MP2 energy          -602.866860055149
         Total SCF energy =   -601.328377727635
          Total MP2 energy          -602.866859767838
         Total SCF energy =   -601.328500228623
          Total MP2 energy          -602.866859768960
         Total SCF energy =   -601.328439710810
          Total MP2 energy          -602.866860094261
         Total SCF energy =   -601.328438851450
          Total MP2 energy          -602.866860094173
         Total SCF energy =   -601.328411211593
          Total MP2 energy          -602.866859964216
         Total SCF energy =   -601.328467116634
          Total MP2 energy          -602.866859963841
         Total SCF energy =   -601.328435451073
          Total MP2 energy          -602.866860046534
         Total SCF energy =   -601.328443023594
          Total MP2 energy          -602.866860046979
         Total SCF energy =   -601.328442721232
          Total MP2 energy          -602.866860093332
         Total SCF energy =   -601.328435855103
          Total MP2 energy          -602.866860093388
         Total SCF energy =   -601.328448341963
          Total MP2 energy          -602.866859960447
         Total SCF energy =   -601.328429977308
          Total MP2 energy          -602.866859961056
         Total SCF energy =   -601.328443575732
          Total MP2 energy          -602.866860047140
         Total SCF energy =   -601.328434910209
          Total MP2 energy          -602.866860046617
         Total SCF energy =   -601.328438148459
          Total MP2 energy          -602.866860096067
         Total SCF energy =   -601.328440435841
          Total MP2 energy          -602.866860096131
         Total SCF energy =   -601.328440516057
          Total MP2 energy          -602.866859864364
         Total SCF energy =   -601.328437566348
          Total MP2 energy          -602.866859864459
         Total SCF energy =   -601.328414407589
          Total MP2 energy          -602.866859806289
         Total SCF energy =   -601.328463524866
          Total MP2 energy          -602.866859807937
         Total SCF energy =   -601.328439013219
          Total MP2 energy          -602.866859887914
         Total SCF energy =   -601.328439121212
          Total MP2 energy          -602.866859888004
         Total SCF energy =   -601.328430367958
          Total MP2 energy          -602.866859983066
         Total SCF energy =   -601.328447993039
          Total MP2 energy          -602.866859982440
         Total SCF energy =   -601.328446118463
          Total MP2 energy          -602.866860042380
         Total SCF energy =   -601.328432358270
          Total MP2 energy          -602.866860041625
         Total SCF energy =   -601.328440336063
          Total MP2 energy          -602.866860098576
         Total SCF energy =   -601.328438254224
          Total MP2 energy          -602.866860098603
         Total SCF energy =   -601.328426760712
          Total MP2 energy          -602.866860055596
         Total SCF energy =   -601.328451738324
          Total MP2 energy          -602.866860055813
         Total SCF energy =   -601.328448248084
          Total MP2 energy          -602.866860058236
         Total SCF energy =   -601.328430251461
          Total MP2 energy          -602.866860057563
         Total SCF energy =   -601.328468173873
          Total MP2 energy          -602.866859971668
         Total SCF energy =   -601.328410164582
          Total MP2 energy          -602.866859971263
         Total SCF energy =   -601.328470373821
          Total MP2 energy          -602.866859951106
         Total SCF energy =   -601.328407923921
          Total MP2 energy          -602.866859950650
         Total SCF energy =   -601.328451075003
          Total MP2 energy          -602.866860049446
         Total SCF energy =   -601.328427408125
          Total MP2 energy          -602.866860049025
         Total SCF energy =   -601.328435392095
          Total MP2 energy          -602.866860073591
         Total SCF energy =   -601.328443140297
          Total MP2 energy          -602.866860073681
         Total SCF energy =   -601.328420112002
          Total MP2 energy          -602.866860029733
         Total SCF energy =   -601.328458337246
          Total MP2 energy          -602.866860029421
         Total SCF energy =   -601.328447969680
          Total MP2 energy          -602.866860058495
         Total SCF energy =   -601.328430531480
          Total MP2 energy          -602.866860058975
         Total SCF energy =   -601.328413957361
          Total MP2 energy          -602.866859996940
         Total SCF energy =   -601.328464429298
          Total MP2 energy          -602.866859996607
 Zero-Point correction to Energy  =   45.491 kcal/mol  (  0.072494 au)
 Thermal correction to Energy     =   50.544 kcal/mol  (  0.080547 au)
 Thermal correction to Enthalpy   =   51.136 kcal/mol  (  0.081491 au)
 Total Entropy                    =   89.874 cal/mol-K
   - Translational                =   40.703 cal/mol-K (mol. weight = 140.0085)
   - Rotational                   =   29.048 cal/mol-K (symmetry #  =        1)
   - Vibrational                  =   20.123 cal/mol-K
   - Translational                  =    2.979 cal/mol-K
   - Rotational                     =    2.979 cal/mol-K
   - Vibrational                    =   22.408 cal/mol-K
 P.Frequency       -0.00       -0.00       -0.00       -0.00        0.00        0.00
 P.Frequency       37.78      142.21      188.45      262.77      273.92      365.98
 P.Frequency      384.45      397.75      441.34      516.52      561.25      589.40
 P.Frequency      713.50      922.12      923.80     1013.19     1039.94     1056.99
 P.Frequency     1117.04     1144.87     1279.52     1353.48     1381.65     1445.35
 P.Frequency     1455.92     1641.45     1711.53     3071.02     3151.03     3252.10

 Normal Eigenvalue ||           Projected Infra Red Intensities
  Mode   [cm**-1]  || [atomic units] [(debye/angs)**2] [(KM/mol)] [arbitrary]
 ------ ---------- || -------------- ----------------- ---------- -----------
    1       -0.000 ||    0.000000           0.000         0.000       0.000
    2       -0.000 ||    0.000017           0.000         0.017       0.003
    3       -0.000 ||    0.000046           0.001         0.045       0.008
    4       -0.000 ||    0.000003           0.000         0.003       0.001
    5        0.000 ||    0.000015           0.000         0.015       0.003
    6        0.000 ||    0.000013           0.000         0.013       0.002
    7       37.781 ||    0.000008           0.000         0.007       0.001
    8      142.212 ||    0.002875           0.066         2.803       0.473
    9      188.450 ||    0.004259           0.098         4.152       0.701
   10      262.766 ||    0.006187           0.143         6.031       1.018
   11      273.921 ||    0.002466           0.057         2.404       0.406
   12      365.981 ||    0.001825           0.042         1.779       0.300
   13      384.450 ||    0.004396           0.101         4.286       0.723
   14      397.750 ||    0.012563           0.290        12.247       2.067
   15      441.343 ||    0.000168           0.004         0.164       0.028
   16      516.520 ||    0.015075           0.348        14.696       2.481
   17      561.252 ||    0.003769           0.087         3.674       0.620
   18      589.396 ||    0.000706           0.016         0.688       0.116
   19      713.501 ||    0.008975           0.207         8.749       1.477
   20      922.120 ||    0.024151           0.557        23.543       3.975
   21      923.797 ||    0.036178           0.835        35.268       5.954
   22     1013.194 ||    0.032021           0.739        31.216       5.270
   23     1039.945 ||    0.063792           1.472        62.188      10.499
   24     1056.989 ||    0.160974           3.714       156.925      26.492
   25     1117.038 ||    0.256106           5.909       249.665      42.148
   26     1144.874 ||    0.197741           4.562       192.768      32.543
   27     1279.517 ||    0.239410           5.523       233.388      39.400
   28     1353.485 ||    0.180105           4.155       175.576      29.640
   29     1381.649 ||    0.026273           0.606        25.613       4.324
   30     1445.352 ||    0.086067           1.986        83.903      14.164
   31     1455.918 ||    0.011837           0.273        11.540       1.948
   32     1641.448 ||    0.203660           4.699       198.538      33.517
   33     1711.535 ||    0.329084           7.592       320.807      54.158
   34     3071.018 ||    0.052751           1.217        51.424       8.681
   35     3151.027 ||    0.217257           5.012       211.793      35.755
   36     3252.097 ||    0.006706           0.155         6.537       1.104
 ----------------------------------------------------------------------------

 Total times  cpu:    30907.6s     wall:    31075.7s
