============================== echo of input deck ==============================
echo
start 14O_
title "H,MeF,H Open"
charge 0

geometry
 zmatrix
  O
  C  1  R1
  C  2  R2  1  A1
  C  3  R3  2  A2  1  D0
  O  4  R4  3  A3  2  D0
  H  1  R5  2  A4  3  D180
  H  2  R6  3  A5  4  D180
  C  3  R7  2  A6  1  D180
  H  4  R8  3  A7  2  D180
  F  8  R9  3  A8  2  D1
  F  8  R10 3  A9  2  D2
  F  8  R11 3  A10 2  D3
  variables
    R1  1.329
    R2  1.363
    A1  124.5
    R3  1.440
    A2  119.5
    R4  1.249
    A3  123.5
    R5  0.994
    A4  105.4
    R6  1.085
    A5  122.5
    R7  1.478
    A6  120.0
    R8  1.099
    A7  117.6
    R9  1.300
    A8  110.0
    D1  90.00
    R10 1.300
    A9  110.0
    D2  -30.0
    R11 1.300
    A10 110.0
    D3  -150.0
  constants
    D0  0.000
    D180 180.0
 end
end

basis spherical
 * library aug-cc-pVDZ
end

set lindep:n_dep 0

set cphf:maxsub 95
set cphf:maxiter 999
set int:acc_std 1d-16
set fock:densityscreen f

scf
 maxiter 99
 vectors input atomic
 thresh 1d-9
 tol2e 1d-15
end

mp2
 freeze atomic
 tight
end

driver
 clear
 maxiter 99
 tight
end

set "mp2:aotol2e fock" 1d-15
set mp2:aotol2e 1d-15
set mp2:backtol 1d-15

task mp2 optimize
task mp2 frequencies

================================================================================

         Total SCF energy =   -601.300967938243
          Total MP2 energy          -602.828462880566
@ Step       Energy      Delta E   Gmax     Grms     Xrms     Xmax   Walltime
@ ---- ---------------- -------- -------- -------- -------- -------- --------
@    0    -602.82846288  0.0D+00  0.06454  0.02302  0.00000  0.00000    396.8
         Total SCF energy =   -601.297908612381
          Total MP2 energy          -602.837570773206
         Total SCF energy =   -601.308870334174
          Total MP2 energy          -602.843293912288
@    1    -602.84329391 -1.5D-02  0.01656  0.00725  0.06729  0.16944    947.5
         Total SCF energy =   -601.293241301730
          Total MP2 energy          -602.836514363383
         Total SCF energy =   -601.308252836685
          Total MP2 energy          -602.845410509331
@    2    -602.84541051 -2.1D-03  0.00849  0.00245  0.03154  0.07405   1481.9
         Total SCF energy =   -601.307569549967
          Total MP2 energy          -602.844496288243
         Total SCF energy =   -601.308602922264
          Total MP2 energy          -602.845651458603
@    3    -602.84565146 -2.4D-04  0.00608  0.00183  0.01259  0.03832   2001.8
         Total SCF energy =   -601.309951787570
          Total MP2 energy          -602.845668321240
         Total SCF energy =   -601.309490367572
          Total MP2 energy          -602.845842880811
@    4    -602.84584288 -1.9D-04  0.00204  0.00083  0.01332  0.04166   2497.9
         Total SCF energy =   -601.310286386370
          Total MP2 energy          -602.845959668371
         Total SCF energy =   -601.310286386370
          Total MP2 energy          -602.845959668371
@    5    -602.84595967 -1.2D-04  0.00224  0.00087  0.02114  0.06541   2872.8
         Total SCF energy =   -601.310338229422
          Total MP2 energy          -602.846076756619
         Total SCF energy =   -601.310321821192
          Total MP2 energy          -602.846083932051
@    6    -602.84608393 -1.2D-04  0.00419  0.00136  0.02736  0.08046   3379.6
         Total SCF energy =   -601.310103690980
          Total MP2 energy          -602.846378553035
         Total SCF energy =   -601.310103690980
          Total MP2 energy          -602.846378553035
@    7    -602.84637855 -2.9D-04  0.00579  0.00206  0.05889  0.21688   3754.1
         Total SCF energy =   -601.310363318133
          Total MP2 energy          -602.846815060661
         Total SCF energy =   -601.310330720578
          Total MP2 energy          -602.846821939310
@    8    -602.84682194 -4.4D-04  0.00363  0.00184  0.07262  0.23589   4262.3
         Total SCF energy =   -601.311528018268
          Total MP2 energy          -602.847317893225
         Total SCF energy =   -601.312158543552
          Total MP2 energy          -602.847423317060
@    9    -602.84742332 -6.0D-04  0.00774  0.00164  0.10459  0.30004   4794.6
         Total SCF energy =   -601.311578044449
          Total MP2 energy          -602.847506863653
         Total SCF energy =   -601.311773108196
          Total MP2 energy          -602.847520453474
@   10    -602.84752045 -9.7D-05  0.00150  0.00057  0.04035  0.12011   5309.5
         Total SCF energy =   -601.311676216084
          Total MP2 energy          -602.847544863502
         Total SCF energy =   -601.311707062757
          Total MP2 energy          -602.847547191552
@   11    -602.84754719 -2.7D-05  0.00097  0.00026  0.01049  0.03402   5803.2
         Total SCF energy =   -601.311802387684
          Total MP2 energy          -602.847550029423
         Total SCF energy =   -601.311781969413
          Total MP2 energy          -602.847550288371
@   12    -602.84755029 -3.1D-06  0.00017  0.00007  0.00542  0.01578   6281.8
         Total SCF energy =   -601.311821418182
          Total MP2 energy          -602.847550372289
         Total SCF energy =   -601.311821418182
          Total MP2 energy          -602.847550372289
@   13    -602.84755037 -8.4D-08  0.00026  0.00007  0.00250  0.00712   6637.2
         Total SCF energy =   -601.311797582675
          Total MP2 energy          -602.847550671042
         Total SCF energy =   -601.311797582675
          Total MP2 energy          -602.847550671042
@   14    -602.84755067 -3.0D-07  0.00003  0.00001  0.00060  0.00153   6970.8
         Total SCF energy =   -601.311799130027
          Total MP2 energy          -602.847550676309
         Total SCF energy =   -601.311799130027
          Total MP2 energy          -602.847550676309
@   15    -602.84755068 -5.3D-09  0.00001  0.00000  0.00017  0.00046   7303.2
         Total SCF energy =   -601.311798985602

 Vector   81  Occ=0.000000D+00  E= 4.501895D-01

 Vector   82  Occ=0.000000D+00  E= 4.542916D-01

 Vector   83  Occ=0.000000D+00  E= 4.720831D-01

 Vector   84  Occ=0.000000D+00  E= 4.898193D-01

 Vector   85  Occ=0.000000D+00  E= 4.915296D-01

 Vector   86  Occ=0.000000D+00  E= 5.164766D-01

          Total MP2 energy          -602.847550676862
         Total SCF energy =   -601.311798985602
          Total MP2 energy          -602.847550676862
@   16    -602.84755068 -5.5D-10  0.00000  0.00000  0.00003  0.00010   7631.1
         Total SCF energy =   -601.311798961789

 Vector   13  Occ=2.000000D+00  E=-1.463984D+00

 Vector   14  Occ=2.000000D+00  E=-1.390356D+00

 Vector   15  Occ=2.000000D+00  E=-1.132804D+00

 Vector   16  Occ=2.000000D+00  E=-9.821054D-01

 Vector   17  Occ=2.000000D+00  E=-9.243628D-01

 Vector   18  Occ=2.000000D+00  E=-8.479040D-01

 Vector   19  Occ=2.000000D+00  E=-8.243431D-01

 Vector   20  Occ=2.000000D+00  E=-8.218834D-01

 Vector   21  Occ=2.000000D+00  E=-7.895937D-01

 Vector   22  Occ=2.000000D+00  E=-7.643741D-01

 Vector   23  Occ=2.000000D+00  E=-7.175652D-01

 Vector   24  Occ=2.000000D+00  E=-7.163283D-01

 Vector   25  Occ=2.000000D+00  E=-6.736052D-01

 Vector   26  Occ=2.000000D+00  E=-6.705538D-01

 Vector   27  Occ=2.000000D+00  E=-6.684210D-01

 Vector   28  Occ=2.000000D+00  E=-6.555088D-01

 Vector   29  Occ=2.000000D+00  E=-6.507654D-01

 Vector   30  Occ=2.000000D+00  E=-6.277543D-01

 Vector   31  Occ=2.000000D+00  E=-6.001513D-01

 Vector   32  Occ=2.000000D+00  E=-5.866940D-01

 Vector   33  Occ=2.000000D+00  E=-5.368614D-01

 Vector   34  Occ=2.000000D+00  E=-4.373828D-01

 Vector   35  Occ=2.000000D+00  E=-3.953357D-01

 Vector   36  Occ=0.000000D+00  E= 1.806747D-02

 Vector   37  Occ=0.000000D+00  E= 4.644451D-02

 Vector   38  Occ=0.000000D+00  E= 5.111396D-02

 Vector   39  Occ=0.000000D+00  E= 5.537754D-02

 Vector   40  Occ=0.000000D+00  E= 8.169678D-02

 Vector   41  Occ=0.000000D+00  E= 8.270307D-02

 Vector   42  Occ=0.000000D+00  E= 9.572710D-02

 Vector   43  Occ=0.000000D+00  E= 1.082920D-01

 Vector   44  Occ=0.000000D+00  E= 1.222125D-01

 Vector   45  Occ=0.000000D+00  E= 1.229751D-01

 Vector   46  Occ=0.000000D+00  E= 1.340583D-01

 Vector   47  Occ=0.000000D+00  E= 1.404166D-01

 Vector   48  Occ=0.000000D+00  E= 1.582598D-01

 Vector   49  Occ=0.000000D+00  E= 1.642854D-01

 Vector   50  Occ=0.000000D+00  E= 1.695707D-01

 Vector   51  Occ=0.000000D+00  E= 1.821192D-01

 Vector   52  Occ=0.000000D+00  E= 1.850290D-01

 Vector   53  Occ=0.000000D+00  E= 1.941104D-01

 Vector   54  Occ=0.000000D+00  E= 2.023631D-01

 Vector   55  Occ=0.000000D+00  E= 2.259412D-01

 Vector   56  Occ=0.000000D+00  E= 2.401707D-01

 Vector   57  Occ=0.000000D+00  E= 2.504778D-01

 Vector   58  Occ=0.000000D+00  E= 2.573380D-01

 Vector   59  Occ=0.000000D+00  E= 2.615589D-01

 Vector   60  Occ=0.000000D+00  E= 2.685990D-01

 Vector   61  Occ=0.000000D+00  E= 2.790409D-01

 Vector   62  Occ=0.000000D+00  E= 2.933527D-01

 Vector   63  Occ=0.000000D+00  E= 3.155706D-01

 Vector   64  Occ=0.000000D+00  E= 3.177822D-01

 Vector   65  Occ=0.000000D+00  E= 3.280808D-01

 Vector   66  Occ=0.000000D+00  E= 3.308422D-01

 Vector   67  Occ=0.000000D+00  E= 3.402045D-01

 Vector   68  Occ=0.000000D+00  E= 3.504406D-01

 Vector   69  Occ=0.000000D+00  E= 3.590089D-01

 Vector   70  Occ=0.000000D+00  E= 3.614643D-01

 Vector   71  Occ=0.000000D+00  E= 3.687014D-01

 Vector   72  Occ=0.000000D+00  E= 3.781047D-01

 Vector   73  Occ=0.000000D+00  E= 3.910223D-01

 Vector   74  Occ=0.000000D+00  E= 3.927919D-01

 Vector   75  Occ=0.000000D+00  E= 4.010017D-01

 Vector   76  Occ=0.000000D+00  E= 4.107244D-01

 Vector   77  Occ=0.000000D+00  E= 4.132051D-01

 Vector   78  Occ=0.000000D+00  E= 4.241129D-01

 Vector   79  Occ=0.000000D+00  E= 4.377267D-01

 Vector   80  Occ=0.000000D+00  E= 4.476500D-01

 Vector   81  Occ=0.000000D+00  E= 4.501896D-01

 Vector   82  Occ=0.000000D+00  E= 4.542917D-01

 Vector   83  Occ=0.000000D+00  E= 4.720830D-01

 Vector   84  Occ=0.000000D+00  E= 4.898195D-01

 Vector   85  Occ=0.000000D+00  E= 4.915298D-01

 Vector   86  Occ=0.000000D+00  E= 5.164766D-01

       Multipole analysis of the density wrt the origin
       ------------------------------------------------

     L   x y z        total         open         nuclear
     -   - - -        -----         ----         -------
     0   0 0 0     -0.000000      0.000000     70.000000

     1   1 0 0     -1.638928      0.000000      1.308148
     1   0 1 0      0.001031      0.000000      0.480632
     1   0 0 1      0.164467      0.000000     -1.392125

     2   2 0 0    -30.118925      0.000000    307.150571
     2   1 1 0     -8.397689      0.000000    -11.636851
     2   1 0 1     -0.623343      0.000000    -22.986999
     2   0 2 0    -44.282955      0.000000    662.989374
     2   0 1 1      0.950804      0.000000     -9.049928

          Total MP2 energy          -602.847550676886
         Total SCF energy =   -601.311798961789
          Total MP2 energy          -602.847550676886
@   17    -602.84755068 -2.4D-11  0.00000  0.00000  0.00000  0.00001   7928.4
@   17    -602.84755068 -2.4D-11  0.00000  0.00000  0.00000  0.00001   7928.4

 Output coordinates in angstroms (scale by  1.889725989 to convert to a.u.)

  No.       Tag          Charge          X              Y              Z
 ---- ---------------- ---------- -------------- -------------- --------------
    1 O                    8.0000    -1.28974003     2.31678254     0.07965743
    2 C                    6.0000    -1.19584405     0.97196846     0.09363670
    3 C                    6.0000    -0.00398764     0.32056949    -0.01464703
    4 C                    6.0000     1.31965606     0.97653766    -0.15890866
    5 O                    8.0000     1.49297046     2.19282715    -0.19746859
    6 H                    1.0000    -2.22155539     2.56439557     0.16886971
    7 H                    1.0000    -2.12623242     0.40619384     0.19685987
    8 C                    6.0000    -0.00077031    -1.17512595     0.01105794
    9 H                    1.0000     2.18046165     0.27506116    -0.23309521
   10 F                    9.0000     0.54008162    -1.69420615    -1.12953566
   11 F                    9.0000    -1.24006394    -1.71953072     0.14491485
   12 F                    9.0000     0.75769351    -1.65647271     1.03865865

         Total SCF energy =   -601.311798961789
          Total MP2 energy          -602.847550676886
         Total SCF energy =   -601.311769345547
          Total MP2 energy          -602.847550381950
         Total SCF energy =   -601.311827950256
          Total MP2 energy          -602.847550381036
         Total SCF energy =   -601.311774325018
          Total MP2 energy          -602.847550435236
         Total SCF energy =   -601.311823107075
         Total SCF energy =   -601.311796721058
          Total MP2 energy          -602.847550588097
         Total SCF energy =   -601.311800956595
          Total MP2 energy          -602.847550587899
         Total SCF energy =   -601.311791019682
          Total MP2 energy          -602.847550630861
         Total SCF energy =   -601.311806775940
          Total MP2 energy          -602.847550630865
         Total SCF energy =   -601.311730455894
          Total MP2 energy          -602.847550305671
         Total SCF energy =   -601.311866714253
          Total MP2 energy          -602.847550304376
         Total SCF energy =   -601.311800910029
          Total MP2 energy          -602.847550665263
         Total SCF energy =   -601.311796957595
          Total MP2 energy          -602.847550665318
         Total SCF energy =   -601.311824691189
          Total MP2 energy          -602.847550435542
         Total SCF energy =   -601.311772744043
          Total MP2 energy          -602.847550436228
         Total SCF energy =   -601.311795356678
          Total MP2 energy          -602.847550631092
         Total SCF energy =   -601.311802454467
          Total MP2 energy          -602.847550631200
         Total SCF energy =   -601.311796403741
          Total MP2 energy          -602.847550670442
         Total SCF energy =   -601.311801493969
          Total MP2 energy          -602.847550670463
         Total SCF energy =   -601.311807610952
          Total MP2 energy          -602.847550534582
         Total SCF energy =   -601.311790022151
          Total MP2 energy          -602.847550534843
         Total SCF energy =   -601.311805104829
          Total MP2 energy          -602.847550603685
         Total SCF energy =   -601.311792661629
          Total MP2 energy          -602.847550603703
         Total SCF energy =   -601.311797951917
          Total MP2 energy          -602.847550663446
         Total SCF energy =   -601.311799933745
          Total MP2 energy          -602.847550663433
         Total SCF energy =   -601.311800833662
          Total MP2 energy          -602.847550431400
         Total SCF energy =   -601.311796548620
          Total MP2 energy          -602.847550429890
         Total SCF energy =   -601.311772804931
          Total MP2 energy          -602.847550374977
         Total SCF energy =   -601.311824428624
          Total MP2 energy          -602.847550374563
         Total SCF energy =   -601.311798951567
          Total MP2 energy          -602.847550454243
         Total SCF energy =   -601.311798480749
          Total MP2 energy          -602.847550452098
         Total SCF energy =   -601.311790792167
          Total MP2 energy          -602.847550565502
         Total SCF energy =   -601.311806899708
          Total MP2 energy          -602.847550565342
         Total SCF energy =   -601.311808322325
          Total MP2 energy          -602.847550594421
         Total SCF energy =   -601.311789426511
          Total MP2 energy          -602.847550594614
         Total SCF energy =   -601.311799589652
          Total MP2 energy          -602.847550665667
         Total SCF energy =   -601.311798301928
          Total MP2 energy          -602.847550665730
         Total SCF energy =   -601.311785701937
          Total MP2 energy          -602.847550618643
         Total SCF energy =   -601.311812089878
          Total MP2 energy          -602.847550618301
         Total SCF energy =   -601.311808354780
          Total MP2 energy          -602.847550621528
         Total SCF energy =   -601.311789439801
          Total MP2 energy          -602.847550621908
         Total SCF energy =   -601.311827405115
          Total MP2 energy          -602.847550538984
         Total SCF energy =   -601.311770236020
          Total MP2 energy          -602.847550539919
         Total SCF energy =   -601.311830124402
          Total MP2 energy          -602.847550517288
         Total SCF energy =   -601.311767474047
          Total MP2 energy          -602.847550517997
         Total SCF energy =   -601.311811058597
          Total MP2 energy          -602.847550614188
         Total SCF energy =   -601.311786721569
          Total MP2 energy          -602.847550614162
         Total SCF energy =   -601.311795559246
          Total MP2 energy          -602.847550639013
         Total SCF energy =   -601.311802270837
          Total MP2 energy          -602.847550639030
         Total SCF energy =   -601.311780232278
          Total MP2 energy          -602.847550596509
         Total SCF energy =   -601.311817518413
          Total MP2 energy          -602.847550597254
         Total SCF energy =   -601.311807412986
          Total MP2 energy          -602.847550624640
         Total SCF energy =   -601.311790387095
          Total MP2 energy          -602.847550624488
         Total SCF energy =   -601.311773135414
          Total MP2 energy          -602.847550557710
         Total SCF energy =   -601.311824541317
          Total MP2 energy          -602.847550558660
 Zero-Point correction to Energy  =   44.875 kcal/mol  (  0.071514 au)
 Thermal correction to Energy     =   50.293 kcal/mol  (  0.080147 au)
 Thermal correction to Enthalpy   =   50.885 kcal/mol  (  0.081091 au)
 Total Entropy                    =   92.264 cal/mol-K
   - Translational                =   40.703 cal/mol-K (mol. weight = 140.0085)
   - Rotational                   =   29.117 cal/mol-K (symmetry #  =        1)
   - Vibrational                  =   22.445 cal/mol-K
   - Translational                  =    2.979 cal/mol-K
   - Rotational                     =    2.979 cal/mol-K
   - Vibrational                    =   23.975 cal/mol-K
 P.Frequency       -0.00       -0.00       -0.00        0.00        0.00        0.00
 P.Frequency       45.30      118.46      170.75      183.25      210.79      318.49
 P.Frequency      384.33      391.93      429.71      451.18      525.62      557.29
 P.Frequency      591.06      711.22      887.40      930.19      999.87     1015.74
 P.Frequency     1117.28     1134.87     1256.51     1285.65     1372.80     1407.90
 P.Frequency     1443.76     1679.35     1751.92     3001.09     3223.47     3808.67

 Normal Eigenvalue ||           Projected Infra Red Intensities
  Mode   [cm**-1]  || [atomic units] [(debye/angs)**2] [(KM/mol)] [arbitrary]
 ------ ---------- || -------------- ----------------- ---------- -----------
    1       -0.000 ||    0.001786           0.041         1.741       0.307
    2       -0.000 ||    0.000654           0.015         0.638       0.112
    3       -0.000 ||    0.000156           0.004         0.152       0.027
    4        0.000 ||    0.000464           0.011         0.453       0.080
    5        0.000 ||    0.000626           0.014         0.611       0.108
    6        0.000 ||    0.000435           0.010         0.424       0.075
    7       45.296 ||    0.003206           0.074         3.126       0.550
    8      118.464 ||    0.007402           0.171         7.216       1.270
    9      170.751 ||    0.000617           0.014         0.602       0.106
   10      183.249 ||    0.005351           0.123         5.217       0.918
   11      210.790 ||    0.003091           0.071         3.013       0.530
   12      318.488 ||    0.062691           1.446        61.114      10.760
   13      384.330 ||    0.004804           0.111         4.683       0.825
   14      391.926 ||    0.004829           0.111         4.708       0.829
   15      429.712 ||    0.013479           0.311        13.140       2.313
   16      451.184 ||    0.019139           0.442        18.658       3.285
   17      525.623 ||    0.053025           1.223        51.691       9.101
   18      557.293 ||    0.003042           0.070         2.965       0.522
   19      591.065 ||    0.000006           0.000         0.006       0.001
   20      711.216 ||    0.016521           0.381        16.105       2.835
   21      887.404 ||    0.077155           1.780        75.214      13.242
   22      930.193 ||    0.013060           0.301        12.732       2.242
   23      999.867 ||    0.000984           0.023         0.959       0.169
   24     1015.736 ||    0.169294           3.906       165.037      29.056
   25     1117.284 ||    0.273438           6.308       266.561      46.930
   26     1134.868 ||    0.217252           5.012       211.788      37.287
   27     1256.510 ||    0.036048           0.832        35.141       6.187
   28     1285.651 ||    0.096698           2.231        94.266      16.596
   29     1372.801 ||    0.288178           6.649       280.930      49.460
   30     1407.897 ||    0.038893           0.897        37.914       6.675
   31     1443.760 ||    0.038628           0.891        37.657       6.630
   32     1679.346 ||    0.196748           4.539       191.799      33.768
   33     1751.918 ||    0.208794           4.817       203.543      35.835
   34     3001.094 ||    0.075035           1.731        73.148      12.878
   35     3223.465 ||    0.001074           0.025         1.047       0.184
   36     3808.673 ||    0.164932           3.805       160.784      28.307
 ----------------------------------------------------------------------------

 Total times  cpu:    30064.8s     wall:    30228.4s
