============================== echo of input deck ==============================
echo
start 14R1_again_
title "H,MeF,H Ref 1"
charge 0

geometry
 zmatrix
  O
  C  1  R1
  C  2  R2  1  A1
  H  3  R3  2  A2  1  D0
  H  1  R5  2  A4  3  D0
  H  2  R6  3  A5  4  D180
  C  3  R7  2  A6  1  D180
  F  7  R9  3  A8  2  D1
  F  7  R10 3  A9  2  D2
  F  7  R11 3  A10 2  D3
  variables
    R1  1.329
    R2  1.363
    A1  124.5
    R3  1.040
    A2  119.5
    R5  0.994
    A4  105.4
    R6  1.085
    A5  122.5
    R7  1.478
    A6  120.0
    R9  1.300
    A8  110.0
    D1  90.00
    R10 1.300
    A9  110.0
    D2  -30.0
    R11 1.300
    A10 110.0
    D3  -150.0
  constants
    D0  0.000
    D180 180.0
 end
end

basis spherical
 * library aug-cc-pVDZ
end

set lindep:n_dep 0

set cphf:maxsub 95
set cphf:maxiter 999
set int:acc_std 1d-16
set fock:densityscreen f

scf
 maxiter 99
 vectors input atomic
 thresh 1d-9
 tol2e 1d-15
end

mp2
 freeze atomic
 tight
end

driver
 clear
 maxiter 99
 tight
end

set "mp2:aotol2e fock" 1d-15
set mp2:aotol2e 1d-15
set mp2:backtol 1d-15

task mp2 optimize
task mp2 frequencies

================================================================================

         Total SCF energy =   -488.571410275937
          Total MP2 energy          -489.774657171312
@ Step       Energy      Delta E   Gmax     Grms     Xrms     Xmax   Walltime
@ ---- ---------------- -------- -------- -------- -------- -------- --------
@    0    -489.77465717  0.0D+00  0.06618  0.02694  0.00000  0.00000    156.1
         Total SCF energy =   -488.564040598377
          Total MP2 energy          -489.782270206133
         Total SCF energy =   -488.578138649758
          Total MP2 energy          -489.789633627781
@    1    -489.78963363 -1.5D-02  0.02012  0.00901  0.08621  0.22693    367.0
         Total SCF energy =   -488.559164325034
          Total MP2 energy          -489.781059944246
         Total SCF energy =   -488.577273068700
          Total MP2 energy          -489.791926554841
@    2    -489.79192655 -2.3D-03  0.00638  0.00263  0.03000  0.08399    581.6
         Total SCF energy =   -488.573559710964
          Total MP2 energy          -489.789548264660
         Total SCF energy =   -488.577244243081
          Total MP2 energy          -489.792170645622
@    3    -489.79217065 -2.4D-04  0.00347  0.00160  0.01197  0.03541    788.9
         Total SCF energy =   -488.578049910693
          Total MP2 energy          -489.792334090197
         Total SCF energy =   -488.578049910693
          Total MP2 energy          -489.792334090197
@    4    -489.79233409 -1.6D-04  0.00239  0.00082  0.01592  0.04077    934.0
         Total SCF energy =   -488.578275020165
          Total MP2 energy          -489.792411301776
         Total SCF energy =   -488.578275020165
          Total MP2 energy          -489.792411301776
@    5    -489.79241130 -7.7D-05  0.00210  0.00102  0.01522  0.03650   1078.8
         Total SCF energy =   -488.578297380587
          Total MP2 energy          -489.792428125940
         Total SCF energy =   -488.578369511181
          Total MP2 energy          -489.792497425901
@    6    -489.79249743 -8.6D-05  0.00274  0.00127  0.01868  0.04870   1279.5
         Total SCF energy =   -488.578608848505
          Total MP2 energy          -489.792881821442
         Total SCF energy =   -488.578495444971
          Total MP2 energy          -489.793111784310
@    7    -489.79311178 -6.1D-04  0.00791  0.00260  0.15520  0.37486   1488.2
         Total SCF energy =   -488.579135741812
          Total MP2 energy          -489.793538696924
         Total SCF energy =   -488.579238484300
          Total MP2 energy          -489.793574924241
@    8    -489.79357492 -4.6D-04  0.00343  0.00121  0.07378  0.16808   1688.4
         Total SCF energy =   -488.579768461283
          Total MP2 energy          -489.793723381718
         Total SCF energy =   -488.579768461283
          Total MP2 energy          -489.793723381718
@    9    -489.79372338 -1.5D-04  0.00151  0.00054  0.02670  0.06078   1832.7
         Total SCF energy =   -488.579711053937
          Total MP2 energy          -489.793737560457
         Total SCF energy =   -488.579700981716
          Total MP2 energy          -489.793737782526
@   10    -489.79373778 -1.4D-05  0.00026  0.00010  0.00412  0.01282   2020.8
         Total SCF energy =   -488.579692251715
          Total MP2 energy          -489.793738324944
         Total SCF energy =   -488.579693246181
          Total MP2 energy          -489.793738332670
@   11    -489.79373833 -5.5D-07  0.00007  0.00002  0.00252  0.00582   2202.1
         Total SCF energy =   -488.579691811593
          Total MP2 energy          -489.793738354000
         Total SCF energy =   -488.579691811593
          Total MP2 energy          -489.793738354000
@   12    -489.79373835 -2.1D-08  0.00001  0.00000  0.00052  0.00126   2339.0
         Total SCF energy =   -488.579690771125

 Vector   51  Occ=0.000000D+00  E= 3.054289D-01

 Vector   52  Occ=0.000000D+00  E= 3.256101D-01

 Vector   53  Occ=0.000000D+00  E= 3.356789D-01

 Vector   54  Occ=0.000000D+00  E= 3.420845D-01

 Vector   55  Occ=0.000000D+00  E= 3.478342D-01

 Vector   56  Occ=0.000000D+00  E= 3.517886D-01

 Vector   57  Occ=0.000000D+00  E= 3.645987D-01

 Vector   58  Occ=0.000000D+00  E= 3.748139D-01

 Vector   59  Occ=0.000000D+00  E= 3.872208D-01

 Vector   60  Occ=0.000000D+00  E= 3.970580D-01

 Vector   61  Occ=0.000000D+00  E= 4.038083D-01

 Vector   62  Occ=0.000000D+00  E= 4.181942D-01

 Vector   63  Occ=0.000000D+00  E= 4.243249D-01

 Vector   64  Occ=0.000000D+00  E= 4.330221D-01

 Vector   65  Occ=0.000000D+00  E= 4.410852D-01

 Vector   66  Occ=0.000000D+00  E= 4.440349D-01

 Vector   67  Occ=0.000000D+00  E= 4.596647D-01

 Vector   68  Occ=0.000000D+00  E= 4.712465D-01

 Vector   69  Occ=0.000000D+00  E= 4.949113D-01

 Vector   70  Occ=0.000000D+00  E= 5.287502D-01

          Total MP2 energy          -489.793738355110
         Total SCF energy =   -488.579690771125
          Total MP2 energy          -489.793738355110
@   13    -489.79373836 -1.1D-09  0.00000  0.00000  0.00013  0.00030   2473.8
         Total SCF energy =   -488.579690763308

 Vector   11  Occ=2.000000D+00  E=-1.441733D+00

 Vector   12  Occ=2.000000D+00  E=-1.102666D+00

 Vector   13  Occ=2.000000D+00  E=-9.649343D-01

 Vector   14  Occ=2.000000D+00  E=-8.748719D-01

 Vector   15  Occ=2.000000D+00  E=-8.157019D-01

 Vector   16  Occ=2.000000D+00  E=-8.099833D-01

 Vector   17  Occ=2.000000D+00  E=-8.011793D-01

 Vector   18  Occ=2.000000D+00  E=-7.266774D-01

 Vector   19  Occ=2.000000D+00  E=-7.012294D-01

 Vector   20  Occ=2.000000D+00  E=-6.884678D-01

 Vector   21  Occ=2.000000D+00  E=-6.657468D-01

 Vector   22  Occ=2.000000D+00  E=-6.538631D-01

 Vector   23  Occ=2.000000D+00  E=-6.531617D-01

 Vector   24  Occ=2.000000D+00  E=-6.416421D-01

 Vector   25  Occ=2.000000D+00  E=-6.104771D-01

 Vector   26  Occ=2.000000D+00  E=-5.806814D-01

 Vector   27  Occ=2.000000D+00  E=-5.717394D-01

 Vector   28  Occ=2.000000D+00  E=-3.904008D-01

 Vector   29  Occ=0.000000D+00  E= 2.634438D-02

 Vector   30  Occ=0.000000D+00  E= 4.526300D-02

 Vector   31  Occ=0.000000D+00  E= 5.446340D-02

 Vector   32  Occ=0.000000D+00  E= 9.019892D-02

 Vector   33  Occ=0.000000D+00  E= 9.768432D-02

 Vector   34  Occ=0.000000D+00  E= 1.045207D-01

 Vector   35  Occ=0.000000D+00  E= 1.092061D-01

 Vector   36  Occ=0.000000D+00  E= 1.277816D-01

 Vector   37  Occ=0.000000D+00  E= 1.290462D-01

 Vector   38  Occ=0.000000D+00  E= 1.330658D-01

 Vector   39  Occ=0.000000D+00  E= 1.442589D-01

 Vector   40  Occ=0.000000D+00  E= 1.518648D-01

 Vector   41  Occ=0.000000D+00  E= 1.680529D-01

 Vector   42  Occ=0.000000D+00  E= 1.726299D-01

 Vector   43  Occ=0.000000D+00  E= 2.004867D-01

 Vector   44  Occ=0.000000D+00  E= 2.267445D-01

 Vector   45  Occ=0.000000D+00  E= 2.450254D-01

 Vector   46  Occ=0.000000D+00  E= 2.598284D-01

 Vector   47  Occ=0.000000D+00  E= 2.698162D-01

 Vector   48  Occ=0.000000D+00  E= 2.757344D-01

 Vector   49  Occ=0.000000D+00  E= 2.796525D-01

 Vector   50  Occ=0.000000D+00  E= 2.887352D-01

 Vector   51  Occ=0.000000D+00  E= 3.054284D-01

 Vector   52  Occ=0.000000D+00  E= 3.256103D-01

 Vector   53  Occ=0.000000D+00  E= 3.356786D-01

 Vector   54  Occ=0.000000D+00  E= 3.420850D-01

 Vector   55  Occ=0.000000D+00  E= 3.478341D-01

 Vector   56  Occ=0.000000D+00  E= 3.517891D-01

 Vector   57  Occ=0.000000D+00  E= 3.645983D-01

 Vector   58  Occ=0.000000D+00  E= 3.748141D-01

 Vector   59  Occ=0.000000D+00  E= 3.872205D-01

 Vector   60  Occ=0.000000D+00  E= 3.970579D-01

 Vector   61  Occ=0.000000D+00  E= 4.038082D-01

 Vector   62  Occ=0.000000D+00  E= 4.181941D-01

 Vector   63  Occ=0.000000D+00  E= 4.243255D-01

 Vector   64  Occ=0.000000D+00  E= 4.330214D-01

 Vector   65  Occ=0.000000D+00  E= 4.410860D-01

 Vector   66  Occ=0.000000D+00  E= 4.440350D-01

 Vector   67  Occ=0.000000D+00  E= 4.596649D-01

 Vector   68  Occ=0.000000D+00  E= 4.712464D-01

 Vector   69  Occ=0.000000D+00  E= 4.949122D-01

 Vector   70  Occ=0.000000D+00  E= 5.287507D-01

       Multipole analysis of the density wrt the origin
       ------------------------------------------------

     L   x y z        total         open         nuclear
     -   - - -        -----         ----         -------
     0   0 0 0     -0.000000      0.000000     56.000000

     1   1 0 0      0.570457      0.000000     -0.506102
     1   0 1 0      1.019457      0.000000     -2.043429
     1   0 0 1     -0.089319      0.000000      0.841745

     2   2 0 0    -25.887683      0.000000     98.056951
     2   1 1 0      2.867960      0.000000     10.112187
     2   1 0 1     -1.070673      0.000000     -4.658808
     2   0 2 0    -30.948152      0.000000    541.685271
     2   0 1 1     -0.651952      0.000000     17.707543

          Total MP2 energy          -489.793738355223
         Total SCF energy =   -488.579690763308
          Total MP2 energy          -489.793738355223
@   14    -489.79373836 -1.1D-10  0.00000  0.00000  0.00001  0.00002   2595.1
@   14    -489.79373836 -1.1D-10  0.00000  0.00000  0.00001  0.00002   2595.1

 Output coordinates in angstroms (scale by  1.889725989 to convert to a.u.)

  No.       Tag          Charge          X              Y              Z
 ---- ---------------- ---------- -------------- -------------- --------------
    1 O                    8.0000     0.11643137     2.89161267     0.10534533
    2 C                    6.0000    -0.26077654     1.58365209     0.13702795
    3 C                    6.0000     0.53741353     0.51924655    -0.09552815
    4 H                    1.0000     1.59825613     0.61682521    -0.33929401
    5 H                    1.0000     1.05984999     2.94903998    -0.11270530
    6 H                    1.0000    -1.31879821     1.47704069     0.37974399
    7 C                    6.0000     0.01079487    -0.86957081    -0.03241144
    8 F                    9.0000     0.17190759    -1.52828597    -1.21831126
    9 F                    9.0000    -1.31303301    -0.92488134     0.27466557
   10 F                    9.0000     0.66744012    -1.61984496     0.90146731

         Total SCF energy =   -488.579690763308
          Total MP2 energy          -489.793738355223
         Total SCF energy =   -488.579712623207
          Total MP2 energy          -489.793738058660
         Total SCF energy =   -488.579668286248
          Total MP2 energy          -489.793738058781
         Total SCF energy =   -488.579665883845
          Total MP2 energy          -489.793738143479
         Total SCF energy =   -488.579715195555
          Total MP2 energy          -489.793738142957
         Total SCF energy =   -488.579684469976
          Total MP2 energy          -489.793738322927
         Total SCF energy =   -488.579696964132
          Total MP2 energy          -489.793738323100
         Total SCF energy =   -488.579703448201
          Total MP2 energy          -489.793737971599
         Total SCF energy =   -488.579677260571
          Total MP2 energy          -489.793737971969
         Total SCF energy =   -488.579685974159
          Total MP2 energy          -489.793737979519
         Total SCF energy =   -488.579694791154
          Total MP2 energy          -489.793737979354
         Total SCF energy =   -488.579687397591
          Total MP2 energy          -489.793738269457
         Total SCF energy =   -488.579693899852
          Total MP2 energy          -489.793738269259
         Total SCF energy =   -488.579677870030
          Total MP2 energy          -489.793737991955
         Total SCF energy =   -488.579702892130
          Total MP2 energy          -489.793737991182
         Total SCF energy =   -488.579714629146
          Total MP2 energy          -489.793737982314
         Total SCF energy =   -488.579666098739
          Total MP2 energy          -489.793737980491
         Total SCF energy =   -488.579694636275
          Total MP2 energy          -489.793738276653
         Total SCF energy =   -488.579686691386
          Total MP2 energy          -489.793738277027
         Total SCF energy =   -488.579681302268
          Total MP2 energy          -489.793738180995
         Total SCF energy =   -488.579699874463
          Total MP2 energy          -489.793738180417
         Total SCF energy =   -488.579689284752
          Total MP2 energy          -489.793738327062
         Total SCF energy =   -488.579692173741
          Total MP2 energy          -489.793738327241
         Total SCF energy =   -488.579692849979
          Total MP2 energy          -489.793738337139
         Total SCF energy =   -488.579688633285
          Total MP2 energy          -489.793738337211
         Total SCF energy =   -488.579664893446
          Total MP2 energy          -489.793738112280
         Total SCF energy =   -488.579716141477
          Total MP2 energy          -489.793738112086
         Total SCF energy =   -488.579692038869
          Total MP2 energy          -489.793738326149
         Total SCF energy =   -488.579689408334
          Total MP2 energy          -489.793738326163
         Total SCF energy =   -488.579696786811
          Total MP2 energy          -489.793738338767
         Total SCF energy =   -488.579684693424
          Total MP2 energy          -489.793738338647
         Total SCF energy =   -488.579700395835
          Total MP2 energy          -489.793738177009
         Total SCF energy =   -488.579680771345
          Total MP2 energy          -489.793738177107
         Total SCF energy =   -488.579691397183
          Total MP2 energy          -489.793738321188
         Total SCF energy =   -488.579690049607
          Total MP2 energy          -489.793738321325
         Total SCF energy =   -488.579688471842
          Total MP2 energy          -489.793738333247
         Total SCF energy =   -488.579693001081
          Total MP2 energy          -489.793738333310
         Total SCF energy =   -488.579682498076
          Total MP2 energy          -489.793738100421
         Total SCF energy =   -488.579698467641
          Total MP2 energy          -489.793738098206
         Total SCF energy =   -488.579664964699
          Total MP2 energy          -489.793738056038
         Total SCF energy =   -488.579715889242
          Total MP2 energy          -489.793738059556
         Total SCF energy =   -488.579691285386
          Total MP2 energy          -489.793738131627
         Total SCF energy =   -488.579689750528
          Total MP2 energy          -489.793738131097
         Total SCF energy =   -488.579685989205
          Total MP2 energy          -489.793738317762
         Total SCF energy =   -488.579695445788
          Total MP2 energy          -489.793738317879
         Total SCF energy =   -488.579704816297
          Total MP2 energy          -489.793738288030
         Total SCF energy =   -488.579676558483
          Total MP2 energy          -489.793738287348
         Total SCF energy =   -488.579720600205
          Total MP2 energy          -489.793738211254
         Total SCF energy =   -488.579660630846
          Total MP2 energy          -489.793738210339
         Total SCF energy =   -488.579722882526
          Total MP2 energy          -489.793738177966
         Total SCF energy =   -488.579658286412
          Total MP2 energy          -489.793738179919
         Total SCF energy =   -488.579689861660
          Total MP2 energy          -489.793738315137
         Total SCF energy =   -488.579691566488
          Total MP2 energy          -489.793738315395
         Total SCF energy =   -488.579683123798
          Total MP2 energy          -489.793738311304
         Total SCF energy =   -488.579698298005
          Total MP2 energy          -489.793738311029
         Total SCF energy =   -488.579673449892
          Total MP2 energy          -489.793738286402
         Total SCF energy =   -488.579707926562
          Total MP2 energy          -489.793738287468
         Total SCF energy =   -488.579707118568
          Total MP2 energy          -489.793738278522
         Total SCF energy =   -488.579674237719
          Total MP2 energy          -489.793738277533
         Total SCF energy =   -488.579667124412
          Total MP2 energy          -489.793738250698
         Total SCF energy =   -488.579714183750
          Total MP2 energy          -489.793738252073
 Zero-Point correction to Energy  =   39.022 kcal/mol  (  0.062186 au)
 Thermal correction to Energy     =   43.220 kcal/mol  (  0.068876 au)
 Thermal correction to Enthalpy   =   43.813 kcal/mol  (  0.069820 au)
 Total Entropy                    =   81.796 cal/mol-K
   - Translational                =   40.038 cal/mol-K (mol. weight = 112.0136)
   - Rotational                   =   27.748 cal/mol-K (symmetry #  =        1)
   - Vibrational                  =   14.009 cal/mol-K
   - Translational                  =    2.979 cal/mol-K
   - Rotational                     =    2.979 cal/mol-K
   - Vibrational                    =   17.411 cal/mol-K
 P.Frequency       -0.00       -0.00       -0.00       -0.00       -0.00        0.00
 P.Frequency       79.49      186.00      198.35      392.60      403.29      407.95
 P.Frequency      487.73      545.54      569.79      677.44      799.65      875.23
 P.Frequency      983.49     1095.91     1113.44     1136.98     1260.36     1314.28
 P.Frequency     1341.56     1414.84     1731.19     3238.84     3272.51     3783.09

 Normal Eigenvalue ||           Projected Infra Red Intensities
  Mode   [cm**-1]  || [atomic units] [(debye/angs)**2] [(KM/mol)] [arbitrary]
 ------ ---------- || -------------- ----------------- ---------- -----------
    1       -0.000 ||    0.000577           0.013         0.562       0.103
    2       -0.000 ||    0.000015           0.000         0.014       0.003
    3       -0.000 ||    0.000135           0.003         0.131       0.024
    4       -0.000 ||    0.000506           0.012         0.493       0.090
    5       -0.000 ||    0.000877           0.020         0.855       0.156
    6        0.000 ||    0.000521           0.012         0.508       0.093
    7       79.495 ||    0.002823           0.065         2.752       0.503
    8      185.996 ||    0.005487           0.127         5.349       0.979
    9      198.347 ||    0.003024           0.070         2.948       0.539
   10      392.600 ||    0.005290           0.122         5.157       0.944
   11      403.288 ||    0.001044           0.024         1.017       0.186
   12      407.948 ||    0.010735           0.248        10.465       1.915
   13      487.732 ||    0.075268           1.736        73.375      13.426
   14      545.535 ||    0.000141           0.003         0.137       0.025
   15      569.793 ||    0.003125           0.072         3.047       0.557
   16      677.441 ||    0.011089           0.256        10.810       1.978
   17      799.646 ||    0.018277           0.422        17.818       3.260
   18      875.228 ||    0.016712           0.386        16.292       2.981
   19      983.489 ||    0.069366           1.600        67.622      12.373
   20     1095.905 ||    0.411449           9.492       401.101      73.392
   21     1113.443 ||    0.285605           6.589       278.422      50.945
   22     1136.981 ||    0.175803           4.056       171.382      31.359
   23     1260.357 ||    0.131649           3.037       128.338      23.483
   24     1314.280 ||    0.076861           1.773        74.928      13.710
   25     1341.561 ||    0.020515           0.473        19.999       3.659
   26     1414.836 ||    0.030526           0.704        29.759       5.445
   27     1731.194 ||    0.257390           5.938       250.917      45.912
   28     3238.835 ||    0.002192           0.051         2.137       0.391
   29     3272.514 ||    0.001401           0.032         1.366       0.250
   30     3783.089 ||    0.063458           1.464        61.862      11.319
 ----------------------------------------------------------------------------

 Total times  cpu:    10089.6s     wall:    10161.2s
