============================== echo of input deck ==============================
echo
start 14R2_again_
title "H,MeF,H Ref 2"
charge 0

geometry
 zmatrix
  O
  C  1  R1
  C  2  R2  1  A1
  H  3  R3  2  A2  1  D0
  H  1  R5  2  A4  3  D180
  H  2  R6  3  A5  4  D180
  C  3  R7  2  A6  1  D180
  F  7  R9  3  A8  2  D1
  F  7  R10 3  A9  2  D2
  F  7  R11 3  A10 2  D3
  variables
    R1  1.329
    R2  1.363
    A1  124.5
    R3  1.040
    A2  119.5
    R5  0.994
    A4  105.4
    R6  1.085
    A5  122.5
    R7  1.478
    A6  120.0
    R9  1.300
    A8  110.0
    D1  90.00
    R10 1.300
    A9  110.0
    D2  -30.0
    R11 1.300
    A10 110.0
    D3  -150.0
  constants
    D0  0.000
    D180 180.0
 end
end

basis spherical
 * library aug-cc-pVDZ
end

set lindep:n_dep 0

set cphf:maxsub 95
set cphf:maxiter 999
set int:acc_std 1d-16
set fock:densityscreen f

scf
 maxiter 99
 vectors input atomic
 thresh 1d-9
 tol2e 1d-15
end

mp2
 freeze atomic
 tight
end

driver
 clear
 maxiter 99
 tight
end

set "mp2:aotol2e fock" 1d-15
set mp2:aotol2e 1d-15
set mp2:backtol 1d-15

task mp2 optimize
task mp2 frequencies

================================================================================

         Total SCF energy =   -488.568826222355
          Total MP2 energy          -489.772090342022
@ Step       Energy      Delta E   Gmax     Grms     Xrms     Xmax   Walltime
@ ---- ---------------- -------- -------- -------- -------- -------- --------
@    0    -489.77209034  0.0D+00  0.06640  0.02776  0.00000  0.00000    155.3
         Total SCF energy =   -488.561148996793
          Total MP2 energy          -489.779301726674
         Total SCF energy =   -488.577032928195
          Total MP2 energy          -489.788242228626
@    1    -489.78824223 -1.6D-02  0.02143  0.00921  0.08722  0.23821    363.5
         Total SCF energy =   -488.558100245963
          Total MP2 energy          -489.779875882056
         Total SCF energy =   -488.576110173266
          Total MP2 energy          -489.790571237229
@    2    -489.79057124 -2.3D-03  0.00653  0.00263  0.02981  0.08331    573.5
         Total SCF energy =   -488.572234725726
          Total MP2 energy          -489.788455301721
         Total SCF energy =   -488.576001719854
          Total MP2 energy          -489.790879059322
@    3    -489.79087906 -3.1D-04  0.00315  0.00162  0.01285  0.03197    780.4
         Total SCF energy =   -488.576404210399
          Total MP2 energy          -489.790950513569
         Total SCF energy =   -488.576362656632
          Total MP2 energy          -489.791040127709
@    4    -489.79104013 -1.6D-04  0.00233  0.00081  0.01144  0.02842    974.4
         Total SCF energy =   -488.576799243585
          Total MP2 energy          -489.791154120550
         Total SCF energy =   -488.576868642071
          Total MP2 energy          -489.791157447804
@    5    -489.79115745 -1.2D-04  0.00249  0.00105  0.01700  0.03596   1170.0
         Total SCF energy =   -488.576989200559
          Total MP2 energy          -489.791221297534
         Total SCF energy =   -488.576987008716
          Total MP2 energy          -489.791233438514
@    6    -489.79123344 -7.6D-05  0.00376  0.00138  0.01644  0.04491   1363.1
         Total SCF energy =   -488.577285078767
          Total MP2 energy          -489.791664476718
         Total SCF energy =   -488.577145316596
          Total MP2 energy          -489.791943157553
@    7    -489.79194316 -7.1D-04  0.01229  0.00385  0.18449  0.45139   1571.8
         Total SCF energy =   -488.577863048153
          Total MP2 energy          -489.792458199816
         Total SCF energy =   -488.577910602681
          Total MP2 energy          -489.792473707443
@    8    -489.79247371 -5.3D-04  0.00293  0.00115  0.05960  0.13790   1773.0
         Total SCF energy =   -488.578427044030
          Total MP2 energy          -489.792552357389
         Total SCF energy =   -488.578376736029
          Total MP2 energy          -489.792553863746
@    9    -489.79255386 -8.0D-05  0.00112  0.00036  0.01178  0.02514   1965.1
         Total SCF energy =   -488.578424384548
          Total MP2 energy          -489.792560630753
         Total SCF energy =   -488.578428554631
          Total MP2 energy          -489.792560688660
@   10    -489.79256069 -6.8D-06  0.00022  0.00009  0.00417  0.01010   2150.2
         Total SCF energy =   -488.578419479577
          Total MP2 energy          -489.792561025537
         Total SCF energy =   -488.578419479577
          Total MP2 energy          -489.792561025537
@   11    -489.79256103 -3.4D-07  0.00007  0.00002  0.00075  0.00206   2286.9
         Total SCF energy =   -488.578423173305
          Total MP2 energy          -489.792561042319
         Total SCF energy =   -488.578423173305
          Total MP2 energy          -489.792561042319
@   12    -489.79256104 -1.7D-08  0.00003  0.00001  0.00029  0.00066   2420.9
         Total SCF energy =   -488.578420641467

 Vector   51  Occ=0.000000D+00  E= 3.112236D-01

 Vector   52  Occ=0.000000D+00  E= 3.325608D-01

 Vector   53  Occ=0.000000D+00  E= 3.369624D-01

 Vector   54  Occ=0.000000D+00  E= 3.452784D-01

 Vector   55  Occ=0.000000D+00  E= 3.467578D-01

 Vector   56  Occ=0.000000D+00  E= 3.540231D-01

 Vector   57  Occ=0.000000D+00  E= 3.660445D-01

 Vector   58  Occ=0.000000D+00  E= 3.843654D-01

 Vector   59  Occ=0.000000D+00  E= 3.920835D-01

 Vector   60  Occ=0.000000D+00  E= 4.024110D-01

 Vector   61  Occ=0.000000D+00  E= 4.052316D-01

 Vector   62  Occ=0.000000D+00  E= 4.091831D-01

 Vector   63  Occ=0.000000D+00  E= 4.134800D-01

 Vector   64  Occ=0.000000D+00  E= 4.442038D-01

 Vector   65  Occ=0.000000D+00  E= 4.478554D-01

 Vector   66  Occ=0.000000D+00  E= 4.594455D-01

 Vector   67  Occ=0.000000D+00  E= 4.658475D-01

 Vector   68  Occ=0.000000D+00  E= 4.724762D-01

 Vector   69  Occ=0.000000D+00  E= 4.957975D-01

 Vector   70  Occ=0.000000D+00  E= 5.311531D-01

          Total MP2 energy          -489.792561044544
         Total SCF energy =   -488.578420641467
          Total MP2 energy          -489.792561044544
@   13    -489.79256104 -2.2D-09  0.00001  0.00000  0.00006  0.00011   2553.4
         Total SCF energy =   -488.578420809416

 Vector   11  Occ=2.000000D+00  E=-1.437900D+00

 Vector   12  Occ=2.000000D+00  E=-1.100850D+00

 Vector   13  Occ=2.000000D+00  E=-9.640809D-01

 Vector   14  Occ=2.000000D+00  E=-8.586562D-01

 Vector   15  Occ=2.000000D+00  E=-8.131183D-01

 Vector   16  Occ=2.000000D+00  E=-8.069190D-01

 Vector   17  Occ=2.000000D+00  E=-7.850490D-01

 Vector   18  Occ=2.000000D+00  E=-7.423307D-01

 Vector   19  Occ=2.000000D+00  E=-7.019848D-01

 Vector   20  Occ=2.000000D+00  E=-6.985905D-01

 Vector   21  Occ=2.000000D+00  E=-6.599115D-01

 Vector   22  Occ=2.000000D+00  E=-6.511200D-01

 Vector   23  Occ=2.000000D+00  E=-6.412247D-01

 Vector   24  Occ=2.000000D+00  E=-6.388213D-01

 Vector   25  Occ=2.000000D+00  E=-6.072470D-01

 Vector   26  Occ=2.000000D+00  E=-5.825639D-01

 Vector   27  Occ=2.000000D+00  E=-5.602031D-01

 Vector   28  Occ=2.000000D+00  E=-3.847181D-01

 Vector   29  Occ=0.000000D+00  E= 2.307395D-02

 Vector   30  Occ=0.000000D+00  E= 4.735766D-02

 Vector   31  Occ=0.000000D+00  E= 5.288802D-02

 Vector   32  Occ=0.000000D+00  E= 9.094359D-02

 Vector   33  Occ=0.000000D+00  E= 9.200399D-02

 Vector   34  Occ=0.000000D+00  E= 1.087956D-01

 Vector   35  Occ=0.000000D+00  E= 1.115895D-01

 Vector   36  Occ=0.000000D+00  E= 1.229940D-01

 Vector   37  Occ=0.000000D+00  E= 1.344506D-01

 Vector   38  Occ=0.000000D+00  E= 1.345434D-01

 Vector   39  Occ=0.000000D+00  E= 1.560570D-01

 Vector   40  Occ=0.000000D+00  E= 1.619301D-01

 Vector   41  Occ=0.000000D+00  E= 1.687982D-01

 Vector   42  Occ=0.000000D+00  E= 1.784345D-01

 Vector   43  Occ=0.000000D+00  E= 1.970513D-01

 Vector   44  Occ=0.000000D+00  E= 2.276149D-01

 Vector   45  Occ=0.000000D+00  E= 2.381374D-01

 Vector   46  Occ=0.000000D+00  E= 2.464382D-01

 Vector   47  Occ=0.000000D+00  E= 2.699514D-01

 Vector   48  Occ=0.000000D+00  E= 2.741904D-01

 Vector   49  Occ=0.000000D+00  E= 2.843496D-01

 Vector   50  Occ=0.000000D+00  E= 2.957128D-01

 Vector   51  Occ=0.000000D+00  E= 3.112230D-01

 Vector   52  Occ=0.000000D+00  E= 3.325606D-01

 Vector   53  Occ=0.000000D+00  E= 3.369620D-01

 Vector   54  Occ=0.000000D+00  E= 3.452782D-01

 Vector   55  Occ=0.000000D+00  E= 3.467574D-01

 Vector   56  Occ=0.000000D+00  E= 3.540228D-01

 Vector   57  Occ=0.000000D+00  E= 3.660447D-01

 Vector   58  Occ=0.000000D+00  E= 3.843660D-01

 Vector   59  Occ=0.000000D+00  E= 3.920828D-01

 Vector   60  Occ=0.000000D+00  E= 4.024107D-01

 Vector   61  Occ=0.000000D+00  E= 4.052307D-01

 Vector   62  Occ=0.000000D+00  E= 4.091822D-01

 Vector   63  Occ=0.000000D+00  E= 4.134807D-01

 Vector   64  Occ=0.000000D+00  E= 4.442039D-01

 Vector   65  Occ=0.000000D+00  E= 4.478540D-01

 Vector   66  Occ=0.000000D+00  E= 4.594459D-01

 Vector   67  Occ=0.000000D+00  E= 4.658479D-01

 Vector   68  Occ=0.000000D+00  E= 4.724763D-01

 Vector   69  Occ=0.000000D+00  E= 4.957968D-01

 Vector   70  Occ=0.000000D+00  E= 5.311526D-01

       Multipole analysis of the density wrt the origin
       ------------------------------------------------

     L   x y z        total         open         nuclear
     -   - - -        -----         ----         -------
     0   0 0 0     -0.000000      0.000000     56.000000

     1   1 0 0     -0.522416      0.000000     -0.389827
     1   0 1 0      1.400602      0.000000     -2.013208
     1   0 0 1      0.138052      0.000000     -0.670256

     2   2 0 0    -27.352075      0.000000     95.940607
     2   1 1 0     -4.444736      0.000000     -2.806081
     2   1 0 1     -0.921140      0.000000     -4.774716
     2   0 2 0    -25.979850      0.000000    547.798628
     2   0 1 1      1.099069      0.000000      4.606505

          Total MP2 energy          -489.792561044698
         Total SCF energy =   -488.578420809416
          Total MP2 energy          -489.792561044698
@   14    -489.79256104 -1.5D-10  0.00000  0.00000  0.00001  0.00003   2683.8
@   14    -489.79256104 -1.5D-10  0.00000  0.00000  0.00001  0.00003   2683.8

 Output coordinates in angstroms (scale by  1.889725989 to convert to a.u.)

  No.       Tag          Charge          X              Y              Z
 ---- ---------------- ---------- -------------- -------------- --------------
    1 O                    8.0000     0.21075604     2.85279812    -0.03448911
    2 C                    6.0000    -0.26645826     1.57620873     0.07047383
    3 C                    6.0000     0.54358977     0.51864067    -0.13436883
    4 H                    1.0000     1.59770182     0.64116799    -0.38853219
    5 H                    1.0000    -0.50750033     3.47373916     0.14452121
    6 H                    1.0000    -1.32253447     1.45435400     0.32511830
    7 C                    6.0000     0.03462516    -0.87244197    -0.02266665
    8 F                    9.0000     0.19188414    -1.56801393    -1.18743347
    9 F                    9.0000    -1.28869772    -0.93438797     0.29717692
   10 F                    9.0000     0.70453102    -1.58553529     0.93019999

         Total SCF energy =   -488.578420809416
          Total MP2 energy          -489.792561044698
         Total SCF energy =   -488.578389236342
          Total MP2 energy          -489.792560826582
         Total SCF energy =   -488.578451906968
          Total MP2 energy          -489.792560824616
         Total SCF energy =   -488.578415010825
          Total MP2 energy          -489.792560746804
         Total SCF energy =   -488.578426003369
          Total MP2 energy          -489.792560747177
         Total SCF energy =   -488.578428312891
          Total MP2 energy          -489.792561022446
         Total SCF energy =   -488.578413232589
          Total MP2 energy          -489.792561022853
         Total SCF energy =   -488.578442277703
          Total MP2 energy          -489.792560671170
         Total SCF energy =   -488.578398543283
          Total MP2 energy          -489.792560671241
         Total SCF energy =   -488.578411622651
          Total MP2 energy          -489.792560663186
         Total SCF energy =   -488.578429215571
          Total MP2 energy          -489.792560663756
         Total SCF energy =   -488.578415331869
          Total MP2 energy          -489.792560961933
         Total SCF energy =   -488.578426064396
          Total MP2 energy          -489.792560961802
         Total SCF energy =   -488.578406082583
          Total MP2 energy          -489.792560677538
         Total SCF energy =   -488.578434759587
          Total MP2 energy          -489.792560675583
         Total SCF energy =   -488.578445171028
          Total MP2 energy          -489.792560668625
         Total SCF energy =   -488.578395639490
          Total MP2 energy          -489.792560664571
         Total SCF energy =   -488.578424383729
          Total MP2 energy          -489.792560965091
         Total SCF energy =   -488.578417031968
          Total MP2 energy          -489.792560965561
         Total SCF energy =   -488.578411242896
          Total MP2 energy          -489.792560869726
         Total SCF energy =   -488.578430023447
          Total MP2 energy          -489.792560868637
         Total SCF energy =   -488.578418948038
          Total MP2 energy          -489.792561016400
         Total SCF energy =   -488.578422603552
          Total MP2 energy          -489.792561017569
         Total SCF energy =   -488.578423044084
          Total MP2 energy          -489.792561024999
         Total SCF energy =   -488.578418527924
          Total MP2 energy          -489.792561025217
         Total SCF energy =   -488.578441390501
          Total MP2 energy          -489.792560890028
         Total SCF energy =   -488.578399909795
          Total MP2 energy          -489.792560892185
         Total SCF energy =   -488.578406281548
          Total MP2 energy          -489.792560915605
         Total SCF energy =   -488.578435063196
          Total MP2 energy          -489.792560913990
         Total SCF energy =   -488.578415651376
          Total MP2 energy          -489.792561033237
         Total SCF energy =   -488.578425931106
          Total MP2 energy          -489.792561032795
         Total SCF energy =   -488.578430646854
          Total MP2 energy          -489.792560871399
         Total SCF energy =   -488.578410622098
          Total MP2 energy          -489.792560871719
         Total SCF energy =   -488.578422901205
          Total MP2 energy          -489.792561010091
         Total SCF energy =   -488.578418636845
          Total MP2 energy          -489.792561010611
         Total SCF energy =   -488.578418377091
          Total MP2 energy          -489.792561023430
         Total SCF energy =   -488.578423189439
          Total MP2 energy          -489.792561023444
         Total SCF energy =   -488.578412991494
          Total MP2 energy          -489.792560789406
         Total SCF energy =   -488.578428074031
          Total MP2 energy          -489.792560794788
         Total SCF energy =   -488.578394035144
          Total MP2 energy          -489.792560743665
         Total SCF energy =   -488.578446906122
          Total MP2 energy          -489.792560746799
         Total SCF energy =   -488.578422170157
          Total MP2 energy          -489.792560820695
         Total SCF energy =   -488.578418956648
          Total MP2 energy          -489.792560819683
         Total SCF energy =   -488.578416115748
          Total MP2 energy          -489.792561007431
         Total SCF energy =   -488.578425411418
          Total MP2 energy          -489.792561007146
         Total SCF energy =   -488.578435816685
          Total MP2 energy          -489.792560973660
         Total SCF energy =   -488.578405643315
          Total MP2 energy          -489.792560973198
         Total SCF energy =   -488.578450172698
          Total MP2 energy          -489.792560903723
         Total SCF energy =   -488.578391157013
          Total MP2 energy          -489.792560903636
         Total SCF energy =   -488.578452838358
          Total MP2 energy          -489.792560872835
         Total SCF energy =   -488.578388429681
          Total MP2 energy          -489.792560870591
         Total SCF energy =   -488.578420193993
          Total MP2 energy          -489.792561004288
         Total SCF energy =   -488.578421326003
          Total MP2 energy          -489.792561004725
         Total SCF energy =   -488.578412955673
          Total MP2 energy          -489.792560999878
         Total SCF energy =   -488.578428557548
          Total MP2 energy          -489.792561000572
         Total SCF energy =   -488.578403161630
          Total MP2 energy          -489.792560974922
         Total SCF energy =   -488.578438303794
          Total MP2 energy          -489.792560974536
         Total SCF energy =   -488.578436256456
          Total MP2 energy          -489.792560971645
         Total SCF energy =   -488.578405199990
          Total MP2 energy          -489.792560971503
         Total SCF energy =   -488.578396822016
          Total MP2 energy          -489.792560938145
         Total SCF energy =   -488.578444572951
          Total MP2 energy          -489.792560938008
 Zero-Point correction to Energy  =   38.858 kcal/mol  (  0.061924 au)
 Thermal correction to Energy     =   43.126 kcal/mol  (  0.068725 au)
 Thermal correction to Enthalpy   =   43.718 kcal/mol  (  0.069669 au)
 Total Entropy                    =   82.144 cal/mol-K
   - Translational                =   40.038 cal/mol-K (mol. weight = 112.0136)
   - Rotational                   =   27.743 cal/mol-K (symmetry #  =        1)
   - Vibrational                  =   14.362 cal/mol-K
   - Translational                  =    2.979 cal/mol-K
   - Rotational                     =    2.979 cal/mol-K
   - Vibrational                    =   17.716 cal/mol-K
 P.Frequency       -0.00       -0.00       -0.00        0.00        0.00        0.00
 P.Frequency       82.19      187.92      198.76      352.54      394.39      404.65
 P.Frequency      414.90      543.74      569.78      676.51      817.25      867.86
 P.Frequency      949.69     1089.71     1114.54     1160.30     1234.79     1291.57
 P.Frequency     1348.73     1401.65     1753.94     3236.34     3262.06     3840.62

 Normal Eigenvalue ||           Projected Infra Red Intensities
  Mode   [cm**-1]  || [atomic units] [(debye/angs)**2] [(KM/mol)] [arbitrary]
 ------ ---------- || -------------- ----------------- ---------- -----------
    1       -0.000 ||    0.000926           0.021         0.903       0.158
    2       -0.000 ||    0.000310           0.007         0.302       0.053
    3       -0.000 ||    0.000456           0.011         0.444       0.078
    4        0.000 ||    0.000733           0.017         0.715       0.125
    5        0.000 ||    0.000561           0.013         0.547       0.096
    6        0.000 ||    0.000626           0.014         0.610       0.107
    7       82.194 ||    0.003225           0.074         3.143       0.551
    8      187.923 ||    0.016719           0.386        16.298       2.857
    9      198.763 ||    0.002312           0.053         2.253       0.395
   10      352.538 ||    0.094909           2.190        92.522      16.217
   11      394.395 ||    0.004732           0.109         4.613       0.808
   12      404.652 ||    0.003315           0.076         3.232       0.566
   13      414.900 ||    0.006995           0.161         6.819       1.195
   14      543.743 ||    0.003339           0.077         3.255       0.571
   15      569.784 ||    0.000861           0.020         0.839       0.147
   16      676.512 ||    0.027612           0.637        26.918       4.718
   17      817.247 ||    0.006482           0.150         6.319       1.108
   18      867.858 ||    0.049323           1.138        48.082       8.428
   19      949.690 ||    0.053092           1.225        51.757       9.072
   20     1089.709 ||    0.396388           9.145       386.419      67.729
   21     1114.539 ||    0.295303           6.813       287.876      50.457
   22     1160.296 ||    0.020918           0.483        20.392       3.574
   23     1234.795 ||    0.191770           4.424       186.947      32.767
   24     1291.574 ||    0.007374           0.170         7.189       1.260
   25     1348.735 ||    0.012486           0.288        12.172       2.133
   26     1401.647 ||    0.229932           5.305       224.149      39.287
   27     1753.939 ||    0.188873           4.357       184.123      32.272
   28     3236.339 ||    0.002122           0.049         2.068       0.363
   29     3262.056 ||    0.002173           0.050         2.118       0.371
   30     3840.624 ||    0.131909           3.043       128.591      22.539
 ----------------------------------------------------------------------------

 Total times  cpu:    10132.6s     wall:    10206.8s
