============================== echo of input deck ==============================
echo
start 1C
title "H,H,H Chelate"
charge 0

geometry
 zmatrix
  O
  C  1  R1
  C  2  R2  1  A1
  C  3  R3  2  A2  1  D0
  O  4  R4  3  A3  2  D0
  H  1  R5  2  A4  3  D0
  H  2  R6  3  A5  4  D180
  H  3  R7  2  A6  1  D180
  H  4  R8  3  A7  2  D180
  variables
    R1  1.329
    R2  1.363
    A1  124.5
    R3  1.440
    A2  119.5
    R4  1.249
    A3  123.5
    R5  0.994
    A4  105.4
    R6  1.085
    A5  122.5
    R7  1.078
    A6  120.0
    R8  1.099
    A7  117.6
  constants
    D0  0.000
    D180 180.0
 end
end

basis spherical
 * library aug-cc-pVDZ
end

set lindep:n_dep 0

set cphf:maxsub 95
set cphf:maxiter 999
set int:acc_std 1d-16
set fock:densityscreen f

scf
 maxiter 99
 vectors input atomic
 thresh 1d-9
 tol2e 1d-15
end

mp2
 freeze atomic
 tight
end

driver
 clear
 maxiter 99
 tight
end

set "mp2:aotol2e fock" 1d-15
set mp2:aotol2e 1d-15
set mp2:backtol 1d-15

task mp2 optimize
task mp2 frequencies

================================================================================

         Total SCF energy =   -265.672730699089
          Total MP2 energy          -266.475697682524
@ Step       Energy      Delta E   Gmax     Grms     Xrms     Xmax   Walltime
@ ---- ---------------- -------- -------- -------- -------- -------- --------
@    0    -266.47569768  0.0D+00  0.01339  0.00492  0.00000  0.00000     61.5
         Total SCF energy =   -265.670238072081
          Total MP2 energy          -266.476210481879
         Total SCF energy =   -265.670733092121
          Total MP2 energy          -266.476227497400
@    1    -266.47622750 -5.3D-04  0.00155  0.00068  0.01228  0.03176    138.9
         Total SCF energy =   -265.670575565382
          Total MP2 energy          -266.476240195611
         Total SCF energy =   -265.670650342381
          Total MP2 energy          -266.476248412686
@    2    -266.47624841 -2.1D-05  0.00072  0.00024  0.00570  0.01267    217.4
         Total SCF energy =   -265.670650547091
          Total MP2 energy          -266.476247507646
         Total SCF energy =   -265.670652067116
          Total MP2 energy          -266.476249562562
@    3    -266.47624956 -1.1D-06  0.00034  0.00012  0.00088  0.00224    290.6
         Total SCF energy =   -265.670598876266
          Total MP2 energy          -266.476249567726
         Total SCF energy =   -265.670598876266
          Total MP2 energy          -266.476249567726
@    4    -266.47624957 -5.2D-09  0.00055  0.00016  0.00202  0.00648    347.5
         Total SCF energy =   -265.670585313500
          Total MP2 energy          -266.476250348301
         Total SCF energy =   -265.670585313500
          Total MP2 energy          -266.476250348301
@    5    -266.47625035 -7.8D-07  0.00006  0.00003  0.00075  0.00253    401.7
         Total SCF energy =   -265.670584539412
          Total MP2 energy          -266.476250334802
         Total SCF energy =   -265.670584539412
          Total MP2 energy          -266.476250334802
@    6    -266.47625033  1.3D-08  0.00008  0.00003  0.00033  0.00091    455.7
         Total SCF energy =   -265.670586053267
          Total MP2 energy          -266.476250378130
         Total SCF energy =   -265.670586053267
          Total MP2 energy          -266.476250378130
@    7    -266.47625038 -4.3D-08  0.00002  0.00000  0.00022  0.00060    509.8
         Total SCF energy =   -265.670585384977
          Total MP2 energy          -266.476250378726
         Total SCF energy =   -265.670585384977
          Total MP2 energy          -266.476250378726
@    8    -266.47625038 -6.0D-10  0.00001  0.00000  0.00004  0.00013    563.2
         Total SCF energy =   -265.670585079742
          Total MP2 energy          -266.476250378833
         Total SCF energy =   -265.670585079742
          Total MP2 energy          -266.476250378833
@    9    -266.47625038 -1.1D-10  0.00001  0.00000  0.00003  0.00010    615.6
         Total SCF energy =   -265.670585284543
          Total MP2 energy          -266.476250378873
         Total SCF energy =   -265.670585284543
          Total MP2 energy          -266.476250378873
@   10    -266.47625038 -4.0D-11  0.00001  0.00000  0.00002  0.00008    668.1
         Total SCF energy =   -265.670585059331

 Vector   28  Occ=0.000000D+00  E= 1.374731D-01  Symmetry=a"

 Vector   29  Occ=0.000000D+00  E= 1.383115D-01  Symmetry=a'

 Vector   30  Occ=0.000000D+00  E= 1.406396D-01  Symmetry=a'

 Vector   31  Occ=0.000000D+00  E= 1.444694D-01  Symmetry=a"

 Vector   32  Occ=0.000000D+00  E= 1.511001D-01  Symmetry=a'

 Vector   33  Occ=0.000000D+00  E= 1.582316D-01  Symmetry=a'

 Vector   34  Occ=0.000000D+00  E= 1.771654D-01  Symmetry=a'

 Vector   35  Occ=0.000000D+00  E= 2.151572D-01  Symmetry=a"

 Vector   36  Occ=0.000000D+00  E= 2.239424D-01  Symmetry=a'

 Vector   37  Occ=0.000000D+00  E= 2.322448D-01  Symmetry=a'

 Vector   38  Occ=0.000000D+00  E= 2.610025D-01  Symmetry=a'

 Vector   39  Occ=0.000000D+00  E= 2.729227D-01  Symmetry=a'

 Vector   40  Occ=0.000000D+00  E= 2.739381D-01  Symmetry=a"

 Vector   41  Occ=0.000000D+00  E= 2.988717D-01  Symmetry=a"

 Vector   42  Occ=0.000000D+00  E= 3.035702D-01  Symmetry=a'

 Vector   43  Occ=0.000000D+00  E= 3.117675D-01  Symmetry=a'

 Vector   44  Occ=0.000000D+00  E= 3.299000D-01  Symmetry=a'

 Vector   45  Occ=0.000000D+00  E= 3.462027D-01  Symmetry=a'

 Vector   46  Occ=0.000000D+00  E= 3.508942D-01  Symmetry=a"

 Vector   47  Occ=0.000000D+00  E= 3.586424D-01  Symmetry=a'

 Vector   48  Occ=0.000000D+00  E= 3.743322D-01  Symmetry=a'

 Vector   49  Occ=0.000000D+00  E= 3.795110D-01  Symmetry=a'

 Vector   50  Occ=0.000000D+00  E= 4.148794D-01  Symmetry=a'

 Vector   51  Occ=0.000000D+00  E= 4.313720D-01  Symmetry=a"

 Vector   52  Occ=0.000000D+00  E= 4.451424D-01  Symmetry=a'

 Vector   53  Occ=0.000000D+00  E= 4.607884D-01  Symmetry=a'

 Vector   54  Occ=0.000000D+00  E= 4.683353D-01  Symmetry=a"

 Vector   55  Occ=0.000000D+00  E= 4.831009D-01  Symmetry=a'

 Vector   56  Occ=0.000000D+00  E= 5.076574D-01  Symmetry=a"

          Total MP2 energy          -266.476250379018
         Total SCF energy =   -265.670585059331
          Total MP2 energy          -266.476250379018
@   11    -266.47625038 -1.4D-10  0.00000  0.00000  0.00002  0.00006    720.7
         Total SCF energy =   -265.670585229805

 Vector    6  Occ=2.000000D+00  E=-1.436556D+00  Symmetry=a'

 Vector    7  Occ=2.000000D+00  E=-1.382432D+00  Symmetry=a'

 Vector    8  Occ=2.000000D+00  E=-1.067637D+00  Symmetry=a'

 Vector    9  Occ=2.000000D+00  E=-9.039555D-01  Symmetry=a'

 Vector   10  Occ=2.000000D+00  E=-8.242707D-01  Symmetry=a'

 Vector   11  Occ=2.000000D+00  E=-7.173431D-01  Symmetry=a'

 Vector   12  Occ=2.000000D+00  E=-6.738638D-01  Symmetry=a'

 Vector   13  Occ=2.000000D+00  E=-6.448587D-01  Symmetry=a'

 Vector   14  Occ=2.000000D+00  E=-6.186161D-01  Symmetry=a'

 Vector   15  Occ=2.000000D+00  E=-6.006282D-01  Symmetry=a"

 Vector   16  Occ=2.000000D+00  E=-5.612924D-01  Symmetry=a'

 Vector   17  Occ=2.000000D+00  E=-5.348016D-01  Symmetry=a"

 Vector   18  Occ=2.000000D+00  E=-4.387319D-01  Symmetry=a'

 Vector   19  Occ=2.000000D+00  E=-3.659051D-01  Symmetry=a"

 Vector   20  Occ=0.000000D+00  E= 2.960795D-02  Symmetry=a'

 Vector   21  Occ=0.000000D+00  E= 4.047189D-02  Symmetry=a'

 Vector   22  Occ=0.000000D+00  E= 5.549522D-02  Symmetry=a'

 Vector   23  Occ=0.000000D+00  E= 6.028069D-02  Symmetry=a"

 Vector   24  Occ=0.000000D+00  E= 6.769704D-02  Symmetry=a'

 Vector   25  Occ=0.000000D+00  E= 9.901673D-02  Symmetry=a"

 Vector   26  Occ=0.000000D+00  E= 1.085236D-01  Symmetry=a'

 Vector   27  Occ=0.000000D+00  E= 1.271249D-01  Symmetry=a'

 Vector   28  Occ=0.000000D+00  E= 1.374730D-01  Symmetry=a"

 Vector   29  Occ=0.000000D+00  E= 1.383114D-01  Symmetry=a'

 Vector   30  Occ=0.000000D+00  E= 1.406392D-01  Symmetry=a'

 Vector   31  Occ=0.000000D+00  E= 1.444699D-01  Symmetry=a"

 Vector   32  Occ=0.000000D+00  E= 1.511002D-01  Symmetry=a'

 Vector   33  Occ=0.000000D+00  E= 1.582318D-01  Symmetry=a'

 Vector   34  Occ=0.000000D+00  E= 1.771656D-01  Symmetry=a'

 Vector   35  Occ=0.000000D+00  E= 2.151575D-01  Symmetry=a"

 Vector   36  Occ=0.000000D+00  E= 2.239419D-01  Symmetry=a'

 Vector   37  Occ=0.000000D+00  E= 2.322450D-01  Symmetry=a'

 Vector   38  Occ=0.000000D+00  E= 2.610022D-01  Symmetry=a'

 Vector   39  Occ=0.000000D+00  E= 2.729223D-01  Symmetry=a'

 Vector   40  Occ=0.000000D+00  E= 2.739387D-01  Symmetry=a"

 Vector   41  Occ=0.000000D+00  E= 2.988716D-01  Symmetry=a"

 Vector   42  Occ=0.000000D+00  E= 3.035710D-01  Symmetry=a'

 Vector   43  Occ=0.000000D+00  E= 3.117677D-01  Symmetry=a'

 Vector   44  Occ=0.000000D+00  E= 3.298996D-01  Symmetry=a'

 Vector   45  Occ=0.000000D+00  E= 3.462028D-01  Symmetry=a'

 Vector   46  Occ=0.000000D+00  E= 3.508950D-01  Symmetry=a"

 Vector   47  Occ=0.000000D+00  E= 3.586424D-01  Symmetry=a'

 Vector   48  Occ=0.000000D+00  E= 3.743321D-01  Symmetry=a'

 Vector   49  Occ=0.000000D+00  E= 3.795116D-01  Symmetry=a'

 Vector   50  Occ=0.000000D+00  E= 4.148793D-01  Symmetry=a'

 Vector   51  Occ=0.000000D+00  E= 4.313726D-01  Symmetry=a"

 Vector   52  Occ=0.000000D+00  E= 4.451430D-01  Symmetry=a'

 Vector   53  Occ=0.000000D+00  E= 4.607860D-01  Symmetry=a'

 Vector   54  Occ=0.000000D+00  E= 4.683353D-01  Symmetry=a"

 Vector   55  Occ=0.000000D+00  E= 4.831012D-01  Symmetry=a'

 Vector   56  Occ=0.000000D+00  E= 5.076573D-01  Symmetry=a"

       Multipole analysis of the density wrt the origin
       ------------------------------------------------

     L   x y z        total         open         nuclear
     -   - - -        -----         ----         -------
     0   0 0 0     -0.000000      0.000000     38.000000

     1   1 0 0      1.278568      0.000000     -0.209835
     1   0 1 0     -0.223318      0.000000     -0.116654
     1   0 0 1      0.000000      0.000000      0.000000

     2   2 0 0    -21.906614      0.000000    107.886012
     2   1 1 0      0.704715      0.000000      0.670973
     2   1 0 1      0.000000      0.000000      0.000000
     2   0 2 0    -21.102419      0.000000    193.300296
     2   0 1 1      0.000000      0.000000      0.000000

          Total MP2 energy          -266.476250379080
         Total SCF energy =   -265.670585229805
          Total MP2 energy          -266.476250379080
@   12    -266.47625038 -6.2D-11  0.00000  0.00000  0.00001  0.00005    773.2
@   12    -266.47625038 -6.2D-11  0.00000  0.00000  0.00001  0.00005    773.2

 Output coordinates in angstroms (scale by  1.889725989 to convert to a.u.)

  No.       Tag          Charge          X              Y              Z
 ---- ---------------- ---------- -------------- -------------- --------------
    1 O                    8.0000    -0.89779042    -1.29649991     0.00000000
    2 C                    6.0000     0.43106368    -1.19387744     0.00000000
    3 C                    6.0000     1.10792785     0.00427568     0.00000000
    4 C                    6.0000     0.35913462     1.24329957     0.00000000
    5 O                    8.0000    -0.89433519     1.28675579     0.00000000
    6 H                    1.0000    -1.23445956    -0.35292708     0.00000000
    7 H                    1.0000     0.94444398    -2.16053019     0.00000000
    8 H                    1.0000     2.19797967     0.01276290     0.00000000
    9 H                    1.0000     0.92924395     2.19473007     0.00000000

         Total SCF energy =   -265.670585229805
          Total MP2 energy          -266.476250379080
         Total SCF energy =   -265.670608066485
          Total MP2 energy          -266.476250122847
         Total SCF energy =   -265.670561883925
          Total MP2 energy          -266.476250124047
         Total SCF energy =   -265.670615033610
          Total MP2 energy          -266.476250146061
         Total SCF energy =   -265.670554917985
          Total MP2 energy          -266.476250142655
         Total SCF energy =   -265.670585187405
          Total MP2 energy          -266.476250352566
         Total SCF energy =   -265.670585187405
          Total MP2 energy          -266.476250352566
         Total SCF energy =   -265.670571193101
          Total MP2 energy          -266.476250030474
         Total SCF energy =   -265.670598586780
          Total MP2 energy          -266.476250033329
         Total SCF energy =   -265.670595957595
          Total MP2 energy          -266.476249964161
         Total SCF energy =   -265.670573637210
          Total MP2 energy          -266.476249962944
         Total SCF energy =   -265.670585122486
          Total MP2 energy          -266.476250302675
         Total SCF energy =   -265.670585122486
          Total MP2 energy          -266.476250302676
         Total SCF energy =   -265.670580257576
          Total MP2 energy          -266.476249996723
         Total SCF energy =   -265.670589402632
          Total MP2 energy          -266.476249998476
         Total SCF energy =   -265.670566540782
          Total MP2 energy          -266.476250028926
         Total SCF energy =   -265.670603233294
          Total MP2 energy          -266.476250030282
         Total SCF energy =   -265.670585171140
          Total MP2 energy          -266.476250336280
         Total SCF energy =   -265.670585171140
          Total MP2 energy          -266.476250336279
         Total SCF energy =   -265.670535638836
          Total MP2 energy          -266.476249971892
         Total SCF energy =   -265.670633994748
          Total MP2 energy          -266.476249966430
         Total SCF energy =   -265.670589634713
          Total MP2 energy          -266.476250053242
         Total SCF energy =   -265.670580125385
          Total MP2 energy          -266.476250051007
         Total SCF energy =   -265.670585105787
          Total MP2 energy          -266.476250288818
         Total SCF energy =   -265.670585105786
          Total MP2 energy          -266.476250288817
         Total SCF energy =   -265.670644404134
          Total MP2 energy          -266.476250040822
         Total SCF energy =   -265.670525407964
          Total MP2 energy          -266.476250048990
         Total SCF energy =   -265.670585832866
          Total MP2 energy          -266.476250322831
         Total SCF energy =   -265.670584480257
          Total MP2 energy          -266.476250322585
         Total SCF energy =   -265.670585198855
          Total MP2 energy          -266.476250362093
         Total SCF energy =   -265.670585198855
          Total MP2 energy          -266.476250362093
         Total SCF energy =   -265.670589615800
          Total MP2 energy          -266.476250315674
         Total SCF energy =   -265.670580689197
          Total MP2 energy          -266.476250309446
         Total SCF energy =   -265.670556416978
          Total MP2 energy          -266.476250228546
         Total SCF energy =   -265.670613743134
          Total MP2 energy          -266.476250233475
         Total SCF energy =   -265.670585206883
          Total MP2 energy          -266.476250362930
         Total SCF energy =   -265.670585206884
          Total MP2 energy          -266.476250362930
         Total SCF energy =   -265.670581336510
          Total MP2 energy          -266.476250313552
         Total SCF energy =   -265.670588981991
          Total MP2 energy          -266.476250313463
         Total SCF energy =   -265.670594303820
          Total MP2 energy          -266.476250228967
         Total SCF energy =   -265.670575851608
          Total MP2 energy          -266.476250229522
         Total SCF energy =   -265.670585211537
          Total MP2 energy          -266.476250366051
         Total SCF energy =   -265.670585211538
          Total MP2 energy          -266.476250366052
         Total SCF energy =   -265.670575437957
          Total MP2 energy          -266.476250191531
         Total SCF energy =   -265.670594646267
          Total MP2 energy          -266.476250191085
         Total SCF energy =   -265.670585474849
          Total MP2 energy          -266.476250352938
         Total SCF energy =   -265.670584919124
          Total MP2 energy          -266.476250352598
         Total SCF energy =   -265.670585216002
          Total MP2 energy          -266.476250368521
         Total SCF energy =   -265.670585216001
          Total MP2 energy          -266.476250368521
         Total SCF energy =   -265.670578979944
          Total MP2 energy          -266.476250313455
         Total SCF energy =   -265.670591336979
          Total MP2 energy          -266.476250311790
         Total SCF energy =   -265.670575951580
          Total MP2 energy          -266.476250247452
         Total SCF energy =   -265.670594238649
          Total MP2 energy          -266.476250247964
         Total SCF energy =   -265.670585213447
          Total MP2 energy          -266.476250367507
         Total SCF energy =   -265.670585213447
          Total MP2 energy          -266.476250367507
 Zero-Point correction to Energy  =   42.493 kcal/mol  (  0.067717 au)
 Thermal correction to Energy     =   45.394 kcal/mol  (  0.072339 au)
 Thermal correction to Enthalpy   =   45.986 kcal/mol  (  0.073283 au)
 Total Entropy                    =   69.427 cal/mol-K
   - Translational                =   38.722 cal/mol-K (mol. weight =  72.0211)
   - Rotational                   =   25.064 cal/mol-K (symmetry #  =        1)
   - Vibrational                  =    5.640 cal/mol-K
   - Translational                  =    2.979 cal/mol-K
   - Rotational                     =    2.979 cal/mol-K
   - Vibrational                    =    9.740 cal/mol-K
 P.Frequency       -0.00       -0.00       -0.00        0.00        0.00        0.00
 P.Frequency      276.30      281.41      391.29      507.50      777.22      881.15
 P.Frequency      911.11     1007.83     1010.11     1035.93     1100.49     1273.48
 P.Frequency     1393.30     1403.15     1472.83     1634.41     1684.00     3048.11
 P.Frequency     3146.39     3231.24     3271.15

 Normal Eigenvalue ||           Projected Infra Red Intensities
  Mode   [cm**-1]  || [atomic units] [(debye/angs)**2] [(KM/mol)] [arbitrary]
 ------ ---------- || -------------- ----------------- ---------- -----------
    1       -0.000 ||    0.000804           0.019         0.784       0.168
    2       -0.000 ||    0.000317           0.007         0.309       0.066
    3       -0.000 ||    0.002143           0.049         2.089       0.449
    4        0.000 ||    0.001241           0.029         1.210       0.260
    5        0.000 ||    0.003383           0.078         3.298       0.709
    6        0.000 ||    0.000000           0.000         0.000       0.000
    7      276.297 ||    0.003827           0.088         3.731       0.802
    8      281.414 ||    0.005786           0.133         5.640       1.212
    9      391.291 ||    0.004618           0.107         4.502       0.967
   10      507.502 ||    0.019118           0.441        18.637       4.005
   11      777.216 ||    0.041494           0.957        40.451       8.693
   12      881.149 ||    0.005411           0.125         5.274       1.134
   13      911.106 ||    0.035344           0.815        34.455       7.405
   14     1007.828 ||    0.056629           1.306        55.204      11.864
   15     1010.114 ||    0.028203           0.651        27.494       5.909
   16     1035.933 ||    0.016331           0.377        15.921       3.422
   17     1100.486 ||    0.014359           0.331        13.998       3.008
   18     1273.476 ||    0.150320           3.468       146.540      31.493
   19     1393.302 ||    0.026317           0.607        25.655       5.514
   20     1403.147 ||    0.046896           1.082        45.716       9.825
   21     1472.829 ||    0.058948           1.360        57.466      12.350
   22     1634.412 ||    0.202778           4.678       197.678      42.483
   23     1684.000 ||    0.261334           6.029       254.762      54.752
   24     3048.107 ||    0.102076           2.355        99.508      21.386
   25     3146.391 ||    0.197826           4.564       192.851      41.446
   26     3231.237 ||    0.002166           0.050         2.111       0.454
   27     3271.145 ||    0.001066           0.025         1.039       0.223
 ----------------------------------------------------------------------------

 Total times  cpu:     3516.2s     wall:     3565.5s
