============================== echo of input deck ==============================
echo
start 1O
title "H,H,H Open"
charge 0

geometry
 zmatrix
  O
  C  1  R1
  C  2  R2  1  A1
  C  3  R3  2  A2  1  D0
  O  4  R4  3  A3  2  D0
  H  1  R5  2  A4  3  D180
  H  2  R6  3  A5  4  D180
  H  3  R7  2  A6  1  D180
  H  4  R8  3  A7  2  D180
  variables
    R1  1.329
    R2  1.363
    A1  124.5
    R3  1.440
    A2  119.5
    R4  1.249
    A3  123.5
    R5  0.994
    A4  105.4
    R6  1.085
    A5  122.5
    R7  1.078
    A6  120.0
    R8  1.099
    A7  117.6
  constants
    D0  0.000
    D180 180.0
 end
end

basis spherical
 * library aug-cc-pVDZ
end

set lindep:n_dep 0

set cphf:maxsub 95
set cphf:maxiter 999
set int:acc_std 1d-16
set fock:densityscreen f

scf
 maxiter 99
 vectors input atomic
 thresh 1d-9
 tol2e 1d-15
end

mp2
 freeze atomic
 tight
end

driver
 clear
 maxiter 99
 tight
end

set "mp2:aotol2e fock" 1d-15
set mp2:aotol2e 1d-15
set mp2:backtol 1d-15

task mp2 optimize
task mp2 frequencies

================================================================================

         Total SCF energy =   -265.646676033230
          Total MP2 energy          -266.450561236173
@ Step       Energy      Delta E   Gmax     Grms     Xrms     Xmax   Walltime
@ ---- ---------------- -------- -------- -------- -------- -------- --------
@    0    -266.45056124  0.0D+00  0.02881  0.01184  0.00000  0.00000     64.4
         Total SCF energy =   -265.652242034995
          Total MP2 energy          -266.454712131612
         Total SCF energy =   -265.652696366735
          Total MP2 energy          -266.455399696932
@    1    -266.45539970 -4.8D-03  0.00708  0.00326  0.09027  0.27725    149.4
         Total SCF energy =   -265.653635945077
          Total MP2 energy          -266.455919183149
         Total SCF energy =   -265.653666366194
          Total MP2 energy          -266.456053006878
@    2    -266.45605301 -6.5D-04  0.00287  0.00140  0.01644  0.04707    227.8
         Total SCF energy =   -265.654203770010
          Total MP2 energy          -266.456082440705
         Total SCF energy =   -265.654029818364
          Total MP2 energy          -266.456123277466
@    3    -266.45612328 -7.0D-05  0.00090  0.00036  0.00801  0.02945    305.7
         Total SCF energy =   -265.654074737689
          Total MP2 energy          -266.456131423586
         Total SCF energy =   -265.654066601796
          Total MP2 energy          -266.456132566285
@    4    -266.45613257 -9.3D-06  0.00038  0.00015  0.00237  0.00499    380.3
         Total SCF energy =   -265.654059651134
          Total MP2 energy          -266.456133399376
         Total SCF energy =   -265.654061495501
          Total MP2 energy          -266.456133474497
@    5    -266.45613347 -9.1D-07  0.00021  0.00006  0.00112  0.00284    449.8
         Total SCF energy =   -265.654051151194
          Total MP2 energy          -266.456133607800
         Total SCF energy =   -265.654054720203
          Total MP2 energy          -266.456133653508
@    6    -266.45613365 -1.8D-07  0.00007  0.00002  0.00055  0.00142    520.8
         Total SCF energy =   -265.654052246786
          Total MP2 energy          -266.456133668596
         Total SCF energy =   -265.654052246786
          Total MP2 energy          -266.456133668596
@    7    -266.45613367 -1.5D-08  0.00002  0.00001  0.00012  0.00038    575.0
         Total SCF energy =   -265.654052067095

 Vector   30  Occ=0.000000D+00  E= 1.451615D-01  Symmetry=a'

 Vector   31  Occ=0.000000D+00  E= 1.500172D-01  Symmetry=a"

 Vector   32  Occ=0.000000D+00  E= 1.527513D-01  Symmetry=a'

 Vector   33  Occ=0.000000D+00  E= 1.671202D-01  Symmetry=a'

 Vector   34  Occ=0.000000D+00  E= 1.791165D-01  Symmetry=a'

 Vector   35  Occ=0.000000D+00  E= 2.107817D-01  Symmetry=a'

 Vector   36  Occ=0.000000D+00  E= 2.198765D-01  Symmetry=a'

 Vector   37  Occ=0.000000D+00  E= 2.279519D-01  Symmetry=a"

 Vector   38  Occ=0.000000D+00  E= 2.457602D-01  Symmetry=a'

 Vector   39  Occ=0.000000D+00  E= 2.752107D-01  Symmetry=a"

 Vector   40  Occ=0.000000D+00  E= 2.866278D-01  Symmetry=a'

 Vector   41  Occ=0.000000D+00  E= 2.897448D-01  Symmetry=a'

 Vector   42  Occ=0.000000D+00  E= 3.118253D-01  Symmetry=a"

 Vector   43  Occ=0.000000D+00  E= 3.220078D-01  Symmetry=a'

 Vector   44  Occ=0.000000D+00  E= 3.379853D-01  Symmetry=a'

 Vector   45  Occ=0.000000D+00  E= 3.451518D-01  Symmetry=a"

 Vector   46  Occ=0.000000D+00  E= 3.504073D-01  Symmetry=a'

 Vector   47  Occ=0.000000D+00  E= 3.616691D-01  Symmetry=a'

 Vector   48  Occ=0.000000D+00  E= 3.802733D-01  Symmetry=a'

 Vector   49  Occ=0.000000D+00  E= 3.895616D-01  Symmetry=a'

 Vector   50  Occ=0.000000D+00  E= 4.088032D-01  Symmetry=a'

 Vector   51  Occ=0.000000D+00  E= 4.234557D-01  Symmetry=a'

 Vector   52  Occ=0.000000D+00  E= 4.251549D-01  Symmetry=a"

 Vector   53  Occ=0.000000D+00  E= 4.561936D-01  Symmetry=a"

 Vector   54  Occ=0.000000D+00  E= 4.600814D-01  Symmetry=a'

 Vector   55  Occ=0.000000D+00  E= 4.726985D-01  Symmetry=a'

 Vector   56  Occ=0.000000D+00  E= 4.893012D-01  Symmetry=a"

 Vector   57  Occ=0.000000D+00  E= 5.165766D-01  Symmetry=a'

          Total MP2 energy          -266.456133670549
         Total SCF energy =   -265.654052067095
          Total MP2 energy          -266.456133670549
@    8    -266.45613367 -2.0D-09  0.00000  0.00000  0.00004  0.00011    628.3
         Total SCF energy =   -265.654052063964

 Vector    6  Occ=2.000000D+00  E=-1.434121D+00  Symmetry=a'

 Vector    7  Occ=2.000000D+00  E=-1.365819D+00  Symmetry=a'

 Vector    8  Occ=2.000000D+00  E=-1.063625D+00  Symmetry=a'

 Vector    9  Occ=2.000000D+00  E=-8.952758D-01  Symmetry=a'

 Vector   10  Occ=2.000000D+00  E=-7.765626D-01  Symmetry=a'

 Vector   11  Occ=2.000000D+00  E=-7.603853D-01  Symmetry=a'

 Vector   12  Occ=2.000000D+00  E=-6.534873D-01  Symmetry=a'

 Vector   13  Occ=2.000000D+00  E=-6.439189D-01  Symmetry=a'

 Vector   14  Occ=2.000000D+00  E=-6.009107D-01  Symmetry=a"

 Vector   15  Occ=2.000000D+00  E=-5.752475D-01  Symmetry=a'

 Vector   16  Occ=2.000000D+00  E=-5.660573D-01  Symmetry=a'

 Vector   17  Occ=2.000000D+00  E=-5.146435D-01  Symmetry=a"

 Vector   18  Occ=2.000000D+00  E=-4.144272D-01  Symmetry=a'

 Vector   19  Occ=2.000000D+00  E=-3.613764D-01  Symmetry=a"

 Vector   20  Occ=0.000000D+00  E= 2.247652D-02  Symmetry=a'

 Vector   21  Occ=0.000000D+00  E= 3.874238D-02  Symmetry=a'

 Vector   22  Occ=0.000000D+00  E= 4.958837D-02  Symmetry=a'

 Vector   23  Occ=0.000000D+00  E= 6.648415D-02  Symmetry=a'

 Vector   24  Occ=0.000000D+00  E= 6.972740D-02  Symmetry=a"

 Vector   25  Occ=0.000000D+00  E= 1.000987D-01  Symmetry=a"

 Vector   26  Occ=0.000000D+00  E= 1.091336D-01  Symmetry=a'

 Vector   27  Occ=0.000000D+00  E= 1.267844D-01  Symmetry=a'

 Vector   28  Occ=0.000000D+00  E= 1.316746D-01  Symmetry=a'

 Vector   29  Occ=0.000000D+00  E= 1.420898D-01  Symmetry=a"

 Vector   30  Occ=0.000000D+00  E= 1.451613D-01  Symmetry=a'

 Vector   31  Occ=0.000000D+00  E= 1.500171D-01  Symmetry=a"

 Vector   32  Occ=0.000000D+00  E= 1.527513D-01  Symmetry=a'

 Vector   33  Occ=0.000000D+00  E= 1.671202D-01  Symmetry=a'

 Vector   34  Occ=0.000000D+00  E= 1.791165D-01  Symmetry=a'

 Vector   35  Occ=0.000000D+00  E= 2.107819D-01  Symmetry=a'

 Vector   36  Occ=0.000000D+00  E= 2.198764D-01  Symmetry=a'

 Vector   37  Occ=0.000000D+00  E= 2.279518D-01  Symmetry=a"

 Vector   38  Occ=0.000000D+00  E= 2.457599D-01  Symmetry=a'

 Vector   39  Occ=0.000000D+00  E= 2.752109D-01  Symmetry=a"

 Vector   40  Occ=0.000000D+00  E= 2.866278D-01  Symmetry=a'

 Vector   41  Occ=0.000000D+00  E= 2.897449D-01  Symmetry=a'

 Vector   42  Occ=0.000000D+00  E= 3.118253D-01  Symmetry=a"

 Vector   43  Occ=0.000000D+00  E= 3.220078D-01  Symmetry=a'

 Vector   44  Occ=0.000000D+00  E= 3.379855D-01  Symmetry=a'

 Vector   45  Occ=0.000000D+00  E= 3.451520D-01  Symmetry=a"

 Vector   46  Occ=0.000000D+00  E= 3.504073D-01  Symmetry=a'

 Vector   47  Occ=0.000000D+00  E= 3.616690D-01  Symmetry=a'

 Vector   48  Occ=0.000000D+00  E= 3.802737D-01  Symmetry=a'

 Vector   49  Occ=0.000000D+00  E= 3.895616D-01  Symmetry=a'

 Vector   50  Occ=0.000000D+00  E= 4.088033D-01  Symmetry=a'

 Vector   51  Occ=0.000000D+00  E= 4.234560D-01  Symmetry=a'

 Vector   52  Occ=0.000000D+00  E= 4.251550D-01  Symmetry=a"

 Vector   53  Occ=0.000000D+00  E= 4.561941D-01  Symmetry=a"

 Vector   54  Occ=0.000000D+00  E= 4.600816D-01  Symmetry=a'

 Vector   55  Occ=0.000000D+00  E= 4.726988D-01  Symmetry=a'

 Vector   56  Occ=0.000000D+00  E= 4.893010D-01  Symmetry=a"

 Vector   57  Occ=0.000000D+00  E= 5.165767D-01  Symmetry=a'

       Multipole analysis of the density wrt the origin
       ------------------------------------------------

     L   x y z        total         open         nuclear
     -   - - -        -----         ----         -------
     0   0 0 0     -0.000000      0.000000     38.000000

     1   1 0 0      1.300304      0.000000     -1.090211
     1   0 1 0     -1.475718      0.000000      0.878025
     1   0 0 1      0.000000      0.000000      0.000000

     2   2 0 0    -22.647191      0.000000    103.159931
     2   1 1 0      3.837440      0.000000      1.612641
     2   1 0 1     -0.000000      0.000000      0.000000
     2   0 2 0    -15.616203      0.000000    238.063957
     2   0 1 1     -0.000000      0.000000      0.000000

          Total MP2 energy          -266.456133670653
         Total SCF energy =   -265.654052063964
          Total MP2 energy          -266.456133670653
@    9    -266.45613367 -1.0D-10  0.00000  0.00000  0.00001  0.00002    677.4
@    9    -266.45613367 -1.0D-10  0.00000  0.00000  0.00001  0.00002    677.4

 Output coordinates in angstroms (scale by  1.889725989 to convert to a.u.)

  No.       Tag          Charge          X              Y              Z
 ---- ---------------- ---------- -------------- -------------- --------------
    1 O                    8.0000    -0.86300255    -1.38279032     0.00000000
    2 C                    6.0000     0.47561799    -1.15875563     0.00000000
    3 C                    6.0000     1.02675980     0.08636610     0.00000000
    4 C                    6.0000     0.28438468     1.35862172     0.00000000
    5 O                    8.0000    -0.94313551     1.47394552     0.00000000
    6 H                    1.0000    -1.01797427    -2.33781489     0.00000000
    7 H                    1.0000     1.12010523    -2.04539279     0.00000000
    8 H                    1.0000     2.11845191     0.13297560     0.00000000
    9 H                    1.0000     0.93103187     2.26822809     0.00000000

         Total SCF energy =   -265.654052063964
          Total MP2 energy          -266.456133670653
         Total SCF energy =   -265.654076399523
          Total MP2 energy          -266.456133450528
         Total SCF energy =   -265.654027274180
          Total MP2 energy          -266.456133450905
         Total SCF energy =   -265.654023996664
          Total MP2 energy          -266.456133360799
         Total SCF energy =   -265.654079478970
          Total MP2 energy          -266.456133360275
         Total SCF energy =   -265.654052037855
          Total MP2 energy          -266.456133659192
         Total SCF energy =   -265.654052037855
          Total MP2 energy          -266.456133659192
         Total SCF energy =   -265.654042622593
          Total MP2 energy          -266.456133343492
         Total SCF energy =   -265.654060844484
          Total MP2 energy          -266.456133343931
         Total SCF energy =   -265.654074265775
          Total MP2 energy          -266.456133245210
         Total SCF energy =   -265.654028967996
          Total MP2 energy          -266.456133244688
         Total SCF energy =   -265.654051967504
          Total MP2 energy          -266.456133604370
         Total SCF energy =   -265.654051967504
          Total MP2 energy          -266.456133604370
         Total SCF energy =   -265.654048203667
          Total MP2 energy          -266.456133322637
         Total SCF energy =   -265.654055187674
          Total MP2 energy          -266.456133320529
         Total SCF energy =   -265.654025038391
          Total MP2 energy          -266.456133296782
         Total SCF energy =   -265.654078320878
          Total MP2 energy          -266.456133299945
         Total SCF energy =   -265.654052001410
          Total MP2 energy          -266.456133626745
         Total SCF energy =   -265.654052001410
          Total MP2 energy          -266.456133626745
         Total SCF energy =   -265.653995426674
          Total MP2 energy          -266.456133235941
         Total SCF energy =   -265.654107792956
          Total MP2 energy          -266.456133237430
         Total SCF energy =   -265.654060879427
          Total MP2 energy          -266.456133380585
         Total SCF energy =   -265.654042608570
          Total MP2 energy          -266.456133378794
         Total SCF energy =   -265.654051941691
          Total MP2 energy          -266.456133582615
         Total SCF energy =   -265.654051941691
          Total MP2 energy          -266.456133582615
         Total SCF energy =   -265.654118938239
          Total MP2 energy          -266.456133301820
         Total SCF energy =   -265.653984446230
          Total MP2 energy          -266.456133302312
         Total SCF energy =   -265.654048091169
          Total MP2 energy          -266.456133628496
         Total SCF energy =   -265.654055916774
          Total MP2 energy          -266.456133628624
         Total SCF energy =   -265.654052036894
          Total MP2 energy          -266.456133659630
         Total SCF energy =   -265.654052036895
          Total MP2 energy          -266.456133659630
         Total SCF energy =   -265.654053246936
          Total MP2 energy          -266.456133635387
         Total SCF energy =   -265.654050788511
          Total MP2 energy          -266.456133635052
         Total SCF energy =   -265.654078322346
          Total MP2 energy          -266.456133416072
         Total SCF energy =   -265.654025291346
          Total MP2 energy          -266.456133416307
         Total SCF energy =   -265.654052053827
          Total MP2 energy          -266.456133667107
         Total SCF energy =   -265.654052053827
          Total MP2 energy          -266.456133667107
         Total SCF energy =   -265.654045653611
          Total MP2 energy          -266.456133587445
         Total SCF energy =   -265.654058298605
          Total MP2 energy          -266.456133587540
         Total SCF energy =   -265.654060302246
          Total MP2 energy          -266.456133540694
         Total SCF energy =   -265.654043559826
          Total MP2 energy          -266.456133540781
         Total SCF energy =   -265.654052047411
          Total MP2 energy          -266.456133659375
         Total SCF energy =   -265.654052047411
          Total MP2 energy          -266.456133659375
         Total SCF energy =   -265.654042360213
          Total MP2 energy          -266.456133486450
         Total SCF energy =   -265.654061399192
          Total MP2 energy          -266.456133486388
         Total SCF energy =   -265.654052500298
          Total MP2 energy          -266.456133642787
         Total SCF energy =   -265.654051557682
          Total MP2 energy          -266.456133642285
         Total SCF energy =   -265.654052049234
          Total MP2 energy          -266.456133659605
         Total SCF energy =   -265.654052049234
          Total MP2 energy          -266.456133659605
         Total SCF energy =   -265.654043576230
          Total MP2 energy          -266.456133597908
         Total SCF energy =   -265.654060396013
          Total MP2 energy          -266.456133597604
         Total SCF energy =   -265.654043095599
          Total MP2 energy          -266.456133553533
         Total SCF energy =   -265.654060789784
          Total MP2 energy          -266.456133553148
         Total SCF energy =   -265.654052048823
          Total MP2 energy          -266.456133660265
         Total SCF energy =   -265.654052048823
          Total MP2 energy          -266.456133660265
 Zero-Point correction to Energy  =   41.775 kcal/mol  (  0.066572 au)
 Thermal correction to Energy     =   45.109 kcal/mol  (  0.071886 au)
 Thermal correction to Enthalpy   =   45.701 kcal/mol  (  0.072829 au)
 Total Entropy                    =   72.822 cal/mol-K
   - Translational                =   38.722 cal/mol-K (mol. weight =  72.0211)
   - Rotational                   =   25.309 cal/mol-K (symmetry #  =        1)
   - Vibrational                  =    8.791 cal/mol-K
   - Translational                  =    2.979 cal/mol-K
   - Rotational                     =    2.979 cal/mol-K
   - Vibrational                    =   11.425 cal/mol-K
 P.Frequency       -0.00       -0.00        0.00        0.00        0.00        0.00
 P.Frequency      134.00      186.07      332.20      442.22      492.35      772.45
 P.Frequency      858.71      933.96      934.11     1005.19     1098.99     1267.54
 P.Frequency     1300.09     1413.02     1451.58     1672.46     1726.51     2961.86
 P.Frequency     3192.87     3241.15     3818.33

 Normal Eigenvalue ||           Projected Infra Red Intensities
  Mode   [cm**-1]  || [atomic units] [(debye/angs)**2] [(KM/mol)] [arbitrary]
 ------ ---------- || -------------- ----------------- ---------- -----------
    1       -0.000 ||    0.003203           0.074         3.123       0.680
    2       -0.000 ||    0.000006           0.000         0.006       0.001
    3        0.000 ||    0.007156           0.165         6.976       1.518
    4        0.000 ||    0.002686           0.062         2.618       0.570
    5        0.000 ||    0.000132           0.003         0.129       0.028
    6        0.000 ||    0.002124           0.049         2.071       0.451
    7      134.000 ||    0.004120           0.095         4.016       0.874
    8      186.075 ||    0.003458           0.080         3.371       0.734
    9      332.195 ||    0.091267           2.106        88.972      19.367
   10      442.223 ||    0.019441           0.449        18.953       4.125
   11      492.346 ||    0.031364           0.724        30.575       6.655
   12      772.450 ||    0.040722           0.939        39.698       8.641
   13      858.715 ||    0.020341           0.469        19.829       4.316
   14      933.962 ||    0.000127           0.003         0.123       0.027
   15      934.106 ||    0.075049           1.731        73.162      15.925
   16     1005.186 ||    0.001969           0.045         1.919       0.418
   17     1098.988 ||    0.022302           0.515        21.741       4.732
   18     1267.540 ||    0.014908           0.344        14.533       3.163
   19     1300.093 ||    0.228504           5.272       222.757      48.488
   20     1413.015 ||    0.002306           0.053         2.248       0.489
   21     1451.575 ||    0.010267           0.237        10.009       2.179
   22     1672.460 ||    0.243798           5.625       237.666      51.733
   23     1726.512 ||    0.148170           3.418       144.443      31.441
   24     2961.857 ||    0.148569           3.428       144.833      31.526
   25     3192.874 ||    0.007724           0.178         7.529       1.639
   26     3241.148 ||    0.006218           0.143         6.062       1.319
   27     3818.332 ||    0.136482           3.149       133.049      28.961
 ----------------------------------------------------------------------------

 Total times  cpu:     3421.1s     wall:     3469.1s
