============================== echo of input deck ==============================
echo
start 1R1
title "H,H,H Reference 1"
charge 0

geometry
 zmatrix
  O
  C  1  R1
  C  2  R2  1  A1
  H  1  R5  2  A4  3  D0
  H  2  R6  3  A5  4  D180
  H  3  R7  2  A6  1  D180
  H  3  R8  2  A7  1  D0
  variables
    R1  1.329
    R2  1.363
    A1  124.5
    R5  0.994
    A4  105.4
    R6  1.085
    A5  122.5
    R7  1.078
    A6  120.0
    R8  1.099
    A7  117.6
  constants
    D0  0.000
    D180 180.0
 end
end

basis spherical
 * library aug-cc-pVDZ
end

set lindep:n_dep 0

set cphf:maxsub 95
set cphf:maxiter 999
set int:acc_std 1d-16
set fock:densityscreen f

scf
 maxiter 99
 vectors input atomic
 thresh 1d-9
 tol2e 1d-15
end

mp2
 freeze atomic
 tight
end

driver
 clear
 maxiter 99
 tight
end

set "mp2:aotol2e fock" 1d-15
set mp2:aotol2e 1d-15
set mp2:backtol 1d-15

task mp2 optimize
task mp2 frequencies

================================================================================

         Total SCF energy =   -152.913936351815
          Total MP2 energy          -153.397209721240
@ Step       Energy      Delta E   Gmax     Grms     Xrms     Xmax   Walltime
@ ---- ---------------- -------- -------- -------- -------- -------- --------
@    0    -153.39720972  0.0D+00  0.04069  0.01274  0.00000  0.00000     15.9
         Total SCF energy =   -152.917247003102
          Total MP2 energy          -153.400241902923
         Total SCF energy =   -152.917443182755
          Total MP2 energy          -153.400460968930
@    1    -153.40046097 -3.3D-03  0.00820  0.00286  0.06902  0.22234     37.6
         Total SCF energy =   -152.917872224154
          Total MP2 energy          -153.400570001155
         Total SCF energy =   -152.917840797943
          Total MP2 energy          -153.400659685379
@    2    -153.40065969 -2.0D-04  0.00144  0.00080  0.01242  0.03768     58.0
         Total SCF energy =   -152.917912359924
          Total MP2 energy          -153.400716495734
         Total SCF energy =   -152.917912359924
          Total MP2 energy          -153.400716495734
@    3    -153.40071650 -5.7D-05  0.00185  0.00054  0.00751  0.01470     72.8
         Total SCF energy =   -152.917866022272
          Total MP2 energy          -153.400726040568
         Total SCF energy =   -152.917866022272
          Total MP2 energy          -153.400726040568
@    4    -153.40072604 -9.5D-06  0.00017  0.00009  0.00312  0.01111     87.3
         Total SCF energy =   -152.917857399262
          Total MP2 energy          -153.400726766847
         Total SCF energy =   -152.917855743243
          Total MP2 energy          -153.400726783800
@    5    -153.40072678 -7.4D-07  0.00012  0.00005  0.00130  0.00317    105.6
         Total SCF energy =   -152.917862356183

 Vector   37  Occ=0.000000D+00  E= 4.331732D-01  Symmetry=a"

 Vector   38  Occ=0.000000D+00  E= 4.515184D-01  Symmetry=a'

 Vector   39  Occ=0.000000D+00  E= 4.797816D-01  Symmetry=a'

 Vector   40  Occ=0.000000D+00  E= 5.168922D-01  Symmetry=a'

          Total MP2 energy          -153.400726871266
         Total SCF energy =   -152.917862356183
          Total MP2 energy          -153.400726871266
@    6    -153.40072687 -8.7D-08  0.00003  0.00001  0.00035  0.00101    119.3
         Total SCF energy =   -152.917868627206

 Vector    3  Occ=2.000000D+00  E=-1.123124D+01  Symmetry=a'

 Vector    4  Occ=2.000000D+00  E=-1.404488D+00  Symmetry=a'

 Vector    5  Occ=2.000000D+00  E=-1.021568D+00  Symmetry=a'

 Vector    6  Occ=2.000000D+00  E=-8.311802D-01  Symmetry=a'

 Vector    7  Occ=2.000000D+00  E=-6.795267D-01  Symmetry=a'

 Vector    8  Occ=2.000000D+00  E=-6.666768D-01  Symmetry=a'

 Vector    9  Occ=2.000000D+00  E=-5.768138D-01  Symmetry=a"

 Vector   10  Occ=2.000000D+00  E=-5.485720D-01  Symmetry=a'

 Vector   11  Occ=2.000000D+00  E=-5.426622D-01  Symmetry=a'

 Vector   12  Occ=2.000000D+00  E=-3.499767D-01  Symmetry=a"

 Vector   13  Occ=0.000000D+00  E= 3.697028D-02  Symmetry=a'

 Vector   14  Occ=0.000000D+00  E= 4.521312D-02  Symmetry=a'

 Vector   15  Occ=0.000000D+00  E= 5.220446D-02  Symmetry=a'

 Vector   16  Occ=0.000000D+00  E= 7.068930D-02  Symmetry=a'

 Vector   17  Occ=0.000000D+00  E= 1.108624D-01  Symmetry=a"

 Vector   18  Occ=0.000000D+00  E= 1.184478D-01  Symmetry=a"

 Vector   19  Occ=0.000000D+00  E= 1.212406D-01  Symmetry=a'

 Vector   20  Occ=0.000000D+00  E= 1.401764D-01  Symmetry=a'

 Vector   21  Occ=0.000000D+00  E= 1.504023D-01  Symmetry=a'

 Vector   22  Occ=0.000000D+00  E= 1.742055D-01  Symmetry=a'

 Vector   23  Occ=0.000000D+00  E= 1.811881D-01  Symmetry=a'

 Vector   24  Occ=0.000000D+00  E= 2.038712D-01  Symmetry=a"

 Vector   25  Occ=0.000000D+00  E= 2.161010D-01  Symmetry=a'

 Vector   26  Occ=0.000000D+00  E= 2.210833D-01  Symmetry=a'

 Vector   27  Occ=0.000000D+00  E= 2.514825D-01  Symmetry=a"

 Vector   28  Occ=0.000000D+00  E= 2.523856D-01  Symmetry=a'

 Vector   29  Occ=0.000000D+00  E= 2.965051D-01  Symmetry=a'

 Vector   30  Occ=0.000000D+00  E= 3.228216D-01  Symmetry=a'

 Vector   31  Occ=0.000000D+00  E= 3.377188D-01  Symmetry=a'

 Vector   32  Occ=0.000000D+00  E= 3.509260D-01  Symmetry=a"

 Vector   33  Occ=0.000000D+00  E= 3.600868D-01  Symmetry=a'

 Vector   34  Occ=0.000000D+00  E= 4.122946D-01  Symmetry=a"

 Vector   35  Occ=0.000000D+00  E= 4.192859D-01  Symmetry=a'

 Vector   36  Occ=0.000000D+00  E= 4.327003D-01  Symmetry=a'

 Vector   37  Occ=0.000000D+00  E= 4.331762D-01  Symmetry=a"

 Vector   38  Occ=0.000000D+00  E= 4.515279D-01  Symmetry=a'

 Vector   39  Occ=0.000000D+00  E= 4.797832D-01  Symmetry=a'

 Vector   40  Occ=0.000000D+00  E= 5.169047D-01  Symmetry=a'

          Total MP2 energy          -153.400726874472
         Total SCF energy =   -152.917868627206
          Total MP2 energy          -153.400726874472
@    7    -153.40072687 -3.2D-09  0.00001  0.00000  0.00004  0.00009    133.1
         Total SCF energy =   -152.917867349306

 Vector    3  Occ=2.000000D+00  E=-1.123124D+01  Symmetry=a'

 Vector    4  Occ=2.000000D+00  E=-1.404483D+00  Symmetry=a'

 Vector    5  Occ=2.000000D+00  E=-1.021565D+00  Symmetry=a'

 Vector    6  Occ=2.000000D+00  E=-8.311788D-01  Symmetry=a'

 Vector    7  Occ=2.000000D+00  E=-6.795235D-01  Symmetry=a'

 Vector    8  Occ=2.000000D+00  E=-6.666758D-01  Symmetry=a'

 Vector    9  Occ=2.000000D+00  E=-5.768120D-01  Symmetry=a"

 Vector   10  Occ=2.000000D+00  E=-5.485693D-01  Symmetry=a'

 Vector   11  Occ=2.000000D+00  E=-5.426637D-01  Symmetry=a'

 Vector   12  Occ=2.000000D+00  E=-3.499749D-01  Symmetry=a"

 Vector   13  Occ=0.000000D+00  E= 3.697016D-02  Symmetry=a'

 Vector   14  Occ=0.000000D+00  E= 4.521304D-02  Symmetry=a'

 Vector   15  Occ=0.000000D+00  E= 5.220443D-02  Symmetry=a'

 Vector   16  Occ=0.000000D+00  E= 7.068920D-02  Symmetry=a'

 Vector   17  Occ=0.000000D+00  E= 1.108622D-01  Symmetry=a"

 Vector   18  Occ=0.000000D+00  E= 1.184480D-01  Symmetry=a"

 Vector   19  Occ=0.000000D+00  E= 1.212405D-01  Symmetry=a'

 Vector   20  Occ=0.000000D+00  E= 1.401762D-01  Symmetry=a'

 Vector   21  Occ=0.000000D+00  E= 1.504024D-01  Symmetry=a'

 Vector   22  Occ=0.000000D+00  E= 1.742054D-01  Symmetry=a'

 Vector   23  Occ=0.000000D+00  E= 1.811879D-01  Symmetry=a'

 Vector   24  Occ=0.000000D+00  E= 2.038699D-01  Symmetry=a"

 Vector   25  Occ=0.000000D+00  E= 2.161007D-01  Symmetry=a'

 Vector   26  Occ=0.000000D+00  E= 2.210825D-01  Symmetry=a'

 Vector   27  Occ=0.000000D+00  E= 2.514822D-01  Symmetry=a"

 Vector   28  Occ=0.000000D+00  E= 2.523853D-01  Symmetry=a'

 Vector   29  Occ=0.000000D+00  E= 2.965041D-01  Symmetry=a'

 Vector   30  Occ=0.000000D+00  E= 3.228219D-01  Symmetry=a'

 Vector   31  Occ=0.000000D+00  E= 3.377179D-01  Symmetry=a'

 Vector   32  Occ=0.000000D+00  E= 3.509262D-01  Symmetry=a"

 Vector   33  Occ=0.000000D+00  E= 3.600855D-01  Symmetry=a'

 Vector   34  Occ=0.000000D+00  E= 4.122946D-01  Symmetry=a"

 Vector   35  Occ=0.000000D+00  E= 4.192858D-01  Symmetry=a'

 Vector   36  Occ=0.000000D+00  E= 4.327001D-01  Symmetry=a'

 Vector   37  Occ=0.000000D+00  E= 4.331746D-01  Symmetry=a"

 Vector   38  Occ=0.000000D+00  E= 4.515266D-01  Symmetry=a'

 Vector   39  Occ=0.000000D+00  E= 4.797816D-01  Symmetry=a'

 Vector   40  Occ=0.000000D+00  E= 5.169046D-01  Symmetry=a'

       Multipole analysis of the density wrt the origin
       ------------------------------------------------

     L   x y z        total         open         nuclear
     -   - - -        -----         ----         -------
     0   0 0 0     -0.000000      0.000000     24.000000

     1   1 0 0      0.317552      0.000000      0.218858
     1   0 1 0     -0.262941      0.000000      0.182795
     1   0 0 1     -0.000000      0.000000      0.000000

     2   2 0 0    -10.761954      0.000000     24.748876
     2   1 1 0      1.121106      0.000000      0.765828
     2   1 0 1      0.000000      0.000000      0.000000
     2   0 2 0    -15.201993      0.000000    100.628793
     2   0 1 1      0.000000      0.000000      0.000000

          Total MP2 energy          -153.400726874824
         Total SCF energy =   -152.917867349306
          Total MP2 energy          -153.400726874824
@    8    -153.40072687 -3.5D-10  0.00000  0.00000  0.00001  0.00003    146.3
@    8    -153.40072687 -3.5D-10  0.00000  0.00000  0.00001  0.00003    146.3

 Output coordinates in angstroms (scale by  1.889725989 to convert to a.u.)

  No.       Tag          Charge          X              Y              Z
 ---- ---------------- ---------- -------------- -------------- --------------
    1 O                    8.0000     0.13466056     1.22124233     0.00000000
    2 C                    6.0000    -0.44211711    -0.02604713     0.00000000
    3 C                    6.0000     0.20191477    -1.21175250     0.00000000
    4 H                    1.0000     1.09808274     1.11428114     0.00000000
    5 H                    1.0000    -1.53140034     0.05270189     0.00000000
    6 H                    1.0000    -0.38015559    -2.13290812     0.00000000
    7 H                    1.0000     1.29321719    -1.28048469     0.00000000

         Total SCF energy =   -152.917867349306
          Total MP2 energy          -153.400726874824
         Total SCF energy =   -152.917886815137
          Total MP2 energy          -153.400726555773
         Total SCF energy =   -152.917847227639
          Total MP2 energy          -153.400726555594
         Total SCF energy =   -152.917841232217
          Total MP2 energy          -153.400726683073
         Total SCF energy =   -152.917893051095
          Total MP2 energy          -153.400726683485
         Total SCF energy =   -152.917867319797
          Total MP2 energy          -153.400726858553
         Total SCF energy =   -152.917867319797
          Total MP2 energy          -153.400726858553
         Total SCF energy =   -152.917879685715
          Total MP2 energy          -153.400726496018
         Total SCF energy =   -152.917854212543
          Total MP2 energy          -153.400726497608
         Total SCF energy =   -152.917858864907
          Total MP2 energy          -153.400726491577
         Total SCF energy =   -152.917875049268
          Total MP2 energy          -153.400726490639
         Total SCF energy =   -152.917867259418
          Total MP2 energy          -153.400726811364
         Total SCF energy =   -152.917867259418
          Total MP2 energy          -153.400726811364
         Total SCF energy =   -152.917854386997
          Total MP2 energy          -153.400726522933
         Total SCF energy =   -152.917879576060
          Total MP2 energy          -153.400726521385
         Total SCF energy =   -152.917889422825
          Total MP2 energy          -153.400726473688
         Total SCF energy =   -152.917844447761
          Total MP2 energy          -153.400726474522
         Total SCF energy =   -152.917867287754
          Total MP2 energy          -153.400726834887
         Total SCF energy =   -152.917867287754
          Total MP2 energy          -153.400726834887
         Total SCF energy =   -152.917841106113
          Total MP2 energy          -153.400726618211
         Total SCF energy =   -152.917893074151
          Total MP2 energy          -153.400726618148
         Total SCF energy =   -152.917872985759
          Total MP2 energy          -153.400726846097
         Total SCF energy =   -152.917861633926
          Total MP2 energy          -153.400726845857
         Total SCF energy =   -152.917867339116
          Total MP2 energy          -153.400726871608
         Total SCF energy =   -152.917867339116
          Total MP2 energy          -153.400726871608
         Total SCF energy =   -152.917876730643
          Total MP2 energy          -153.400726689598
         Total SCF energy =   -152.917857594931
          Total MP2 energy          -153.400726689132
         Total SCF energy =   -152.917865709710
          Total MP2 energy          -153.400726841955
         Total SCF energy =   -152.917868912140
          Total MP2 energy          -153.400726841902
         Total SCF energy =   -152.917867332102
          Total MP2 energy          -153.400726862308
         Total SCF energy =   -152.917867332102
          Total MP2 energy          -153.400726862308
         Total SCF energy =   -152.917872173239
          Total MP2 energy          -153.400726803451
         Total SCF energy =   -152.917862375275
          Total MP2 energy          -153.400726803564
         Total SCF energy =   -152.917874347097
          Total MP2 energy          -153.400726732545
         Total SCF energy =   -152.917860064030
          Total MP2 energy          -153.400726732571
         Total SCF energy =   -152.917867335842
          Total MP2 energy          -153.400726865292
         Total SCF energy =   -152.917867335842
          Total MP2 energy          -153.400726865292
         Total SCF energy =   -152.917858747813
          Total MP2 energy          -153.400726691566
         Total SCF energy =   -152.917875585084
          Total MP2 energy          -153.400726692152
         Total SCF energy =   -152.917867616413
          Total MP2 energy          -153.400726849256
         Total SCF energy =   -152.917867020660
          Total MP2 energy          -153.400726849188
         Total SCF energy =   -152.917867336172
          Total MP2 energy          -153.400726865458
         Total SCF energy =   -152.917867336172
          Total MP2 energy          -153.400726865458
 Zero-Point correction to Energy  =   35.466 kcal/mol  (  0.056519 au)
 Thermal correction to Energy     =   37.764 kcal/mol  (  0.060180 au)
 Thermal correction to Enthalpy   =   38.356 kcal/mol  (  0.061124 au)
 Total Entropy                    =   61.226 cal/mol-K
   - Translational                =   37.256 cal/mol-K (mol. weight =  44.0262)
   - Rotational                   =   21.605 cal/mol-K (symmetry #  =        1)
   - Vibrational                  =    2.365 cal/mol-K
   - Translational                  =    2.979 cal/mol-K
   - Rotational                     =    2.979 cal/mol-K
   - Vibrational                    =    5.614 cal/mol-K
 P.Frequency        0.00        0.00        0.00        0.00        0.00        0.00
 P.Frequency      440.55      481.94      706.12      819.86      947.22      979.88
 P.Frequency     1109.19     1314.87     1347.70     1440.16     1689.97     3192.21
 P.Frequency     3251.23     3309.42     3790.69

 Normal Eigenvalue ||           Projected Infra Red Intensities
  Mode   [cm**-1]  || [atomic units] [(debye/angs)**2] [(KM/mol)] [arbitrary]
 ------ ---------- || -------------- ----------------- ---------- -----------
    1        0.000 ||    0.001469           0.034         1.432       0.480
    2        0.000 ||    0.000202           0.005         0.197       0.066
    3        0.000 ||    0.002164           0.050         2.110       0.707
    4        0.000 ||    0.000024           0.001         0.024       0.008
    5        0.000 ||    0.000611           0.014         0.596       0.199
    6        0.000 ||    0.000153           0.004         0.149       0.050
    7      440.546 ||    0.092207           2.127        89.888      30.107
    8      481.936 ||    0.012325           0.284        12.015       4.024
    9      706.124 ||    0.001595           0.037         1.555       0.521
   10      819.856 ||    0.054156           1.249        52.794      17.683
   11      947.222 ||    0.014932           0.344        14.556       4.876
   12      979.877 ||    0.044985           1.038        43.853      14.688
   13     1109.193 ||    0.179649           4.145       175.131      58.659
   14     1314.867 ||    0.002795           0.064         2.725       0.913
   15     1347.699 ||    0.005909           0.136         5.761       1.929
   16     1440.157 ||    0.016498           0.381        16.083       5.387
   17     1689.972 ||    0.155134           3.579       151.233      50.654
   18     3192.209 ||    0.003913           0.090         3.814       1.278
   19     3251.228 ||    0.004006           0.092         3.906       1.308
   20     3309.419 ||    0.005708           0.132         5.564       1.864
   21     3790.693 ||    0.044710           1.031        43.586      14.599
 ----------------------------------------------------------------------------

 Total times  cpu:      664.4s     wall:      683.2s
