============================== echo of input deck ==============================
echo
start 1R2
title "H,H,H Reference 2"
charge 0

geometry
 zmatrix
  O
  C  1  R1
  C  2  R2  1  A1
  H  1  R5  2  A4  3  D180
  H  2  R6  3  A5  4  D180
  H  3  R7  2  A6  1  D180
  H  3  R8  2  A7  1  D0
  variables
    R1  1.329
    R2  1.363
    A1  124.5
    R5  0.994
    A4  105.4
    R6  1.085
    A5  122.5
    R7  1.078
    A6  120.0
    R8  1.099
    A7  117.6
  constants
    D0  0.000
    D180 180.0
 end
end

basis spherical
 * library aug-cc-pVDZ
end

set lindep:n_dep 0

set cphf:maxsub 95
set cphf:maxiter 999
set int:acc_std 1d-16
set fock:densityscreen f

scf
 maxiter 99
 vectors input atomic
 thresh 1d-9
 tol2e 1d-15
end

mp2
 freeze atomic
 tight
end

driver
 clear
 maxiter 99
 tight
end

set "mp2:aotol2e fock" 1d-15
set mp2:aotol2e 1d-15
set mp2:backtol 1d-15

task mp2 optimize
task mp2 frequencies

================================================================================

         Total SCF energy =   -152.910551530520
          Total MP2 energy          -153.393898985903
@ Step       Energy      Delta E   Gmax     Grms     Xrms     Xmax   Walltime
@ ---- ---------------- -------- -------- -------- -------- -------- --------
@    0    -153.39389899  0.0D+00  0.04757  0.01565  0.00000  0.00000     16.0
         Total SCF energy =   -152.913696952774
          Total MP2 energy          -153.396603661245
         Total SCF energy =   -152.914987074722
          Total MP2 energy          -153.397976844966
@    1    -153.39797684 -4.1D-03  0.00997  0.00386  0.06318  0.17225     37.2
         Total SCF energy =   -152.915702858184
          Total MP2 energy          -153.398352626708
         Total SCF energy =   -152.915778072263
          Total MP2 energy          -153.398526279253
@    2    -153.39852628 -5.5D-04  0.00276  0.00122  0.01905  0.04462     57.8
         Total SCF energy =   -152.915759359034
          Total MP2 energy          -153.398604419652
         Total SCF energy =   -152.915759359034
          Total MP2 energy          -153.398604419652
@    3    -153.39860442 -7.8D-05  0.00135  0.00045  0.00524  0.01195     72.8
         Total SCF energy =   -152.915711376591
          Total MP2 energy          -153.398609887015
         Total SCF energy =   -152.915711376591
          Total MP2 energy          -153.398609887015
@    4    -153.39860989 -5.5D-06  0.00022  0.00009  0.00177  0.00520     86.5
         Total SCF energy =   -152.915693505732
          Total MP2 energy          -153.398610267131
         Total SCF energy =   -152.915693505732
          Total MP2 energy          -153.398610267131
@    5    -153.39861027 -3.8D-07  0.00007  0.00003  0.00069  0.00156    100.4
         Total SCF energy =   -152.915701085749

 Vector   37  Occ=0.000000D+00  E= 4.452012D-01  Symmetry=a'

 Vector   38  Occ=0.000000D+00  E= 4.512927D-01  Symmetry=a"

 Vector   39  Occ=0.000000D+00  E= 4.981992D-01  Symmetry=a'

 Vector   40  Occ=0.000000D+00  E= 5.161002D-01  Symmetry=a'

          Total MP2 energy          -153.398610332951
         Total SCF energy =   -152.915701085749
          Total MP2 energy          -153.398610332951
@    6    -153.39861033 -6.6D-08  0.00004  0.00001  0.00034  0.00086    114.0
         Total SCF energy =   -152.915702270632

 Vector    3  Occ=2.000000D+00  E=-1.122532D+01  Symmetry=a'

 Vector    4  Occ=2.000000D+00  E=-1.400239D+00  Symmetry=a'

 Vector    5  Occ=2.000000D+00  E=-1.021530D+00  Symmetry=a'

 Vector    6  Occ=2.000000D+00  E=-7.954693D-01  Symmetry=a'

 Vector    7  Occ=2.000000D+00  E=-7.378647D-01  Symmetry=a'

 Vector    8  Occ=2.000000D+00  E=-6.182014D-01  Symmetry=a'

 Vector    9  Occ=2.000000D+00  E=-5.732738D-01  Symmetry=a"

 Vector   10  Occ=2.000000D+00  E=-5.714783D-01  Symmetry=a'

 Vector   11  Occ=2.000000D+00  E=-5.214656D-01  Symmetry=a'

 Vector   12  Occ=2.000000D+00  E=-3.445165D-01  Symmetry=a"

 Vector   13  Occ=0.000000D+00  E= 3.149666D-02  Symmetry=a'

 Vector   14  Occ=0.000000D+00  E= 4.875669D-02  Symmetry=a'

 Vector   15  Occ=0.000000D+00  E= 5.365041D-02  Symmetry=a'

 Vector   16  Occ=0.000000D+00  E= 7.006453D-02  Symmetry=a'

 Vector   17  Occ=0.000000D+00  E= 1.101282D-01  Symmetry=a"

 Vector   18  Occ=0.000000D+00  E= 1.182525D-01  Symmetry=a"

 Vector   19  Occ=0.000000D+00  E= 1.261354D-01  Symmetry=a'

 Vector   20  Occ=0.000000D+00  E= 1.292963D-01  Symmetry=a'

 Vector   21  Occ=0.000000D+00  E= 1.547748D-01  Symmetry=a'

 Vector   22  Occ=0.000000D+00  E= 1.778133D-01  Symmetry=a'

 Vector   23  Occ=0.000000D+00  E= 1.974973D-01  Symmetry=a'

 Vector   24  Occ=0.000000D+00  E= 2.047199D-01  Symmetry=a"

 Vector   25  Occ=0.000000D+00  E= 2.107124D-01  Symmetry=a'

 Vector   26  Occ=0.000000D+00  E= 2.256084D-01  Symmetry=a'

 Vector   27  Occ=0.000000D+00  E= 2.362544D-01  Symmetry=a'

 Vector   28  Occ=0.000000D+00  E= 2.502095D-01  Symmetry=a"

 Vector   29  Occ=0.000000D+00  E= 3.049742D-01  Symmetry=a'

 Vector   30  Occ=0.000000D+00  E= 3.074080D-01  Symmetry=a'

 Vector   31  Occ=0.000000D+00  E= 3.567215D-01  Symmetry=a'

 Vector   32  Occ=0.000000D+00  E= 3.570088D-01  Symmetry=a"

 Vector   33  Occ=0.000000D+00  E= 3.747497D-01  Symmetry=a'

 Vector   34  Occ=0.000000D+00  E= 4.034272D-01  Symmetry=a"

 Vector   35  Occ=0.000000D+00  E= 4.041875D-01  Symmetry=a'

 Vector   36  Occ=0.000000D+00  E= 4.205341D-01  Symmetry=a'

 Vector   37  Occ=0.000000D+00  E= 4.451981D-01  Symmetry=a'

 Vector   38  Occ=0.000000D+00  E= 4.512893D-01  Symmetry=a"

 Vector   39  Occ=0.000000D+00  E= 4.981996D-01  Symmetry=a'

 Vector   40  Occ=0.000000D+00  E= 5.161137D-01  Symmetry=a'

          Total MP2 energy          -153.398610342494
         Total SCF energy =   -152.915702270632
          Total MP2 energy          -153.398610342494
@    7    -153.39861034 -9.5D-09  0.00001  0.00000  0.00017  0.00051    127.6
         Total SCF energy =   -152.915703127294

 Vector    3  Occ=2.000000D+00  E=-1.122532D+01  Symmetry=a'

 Vector    4  Occ=2.000000D+00  E=-1.400245D+00  Symmetry=a'

 Vector    5  Occ=2.000000D+00  E=-1.021530D+00  Symmetry=a'

 Vector    6  Occ=2.000000D+00  E=-7.954714D-01  Symmetry=a'

 Vector    7  Occ=2.000000D+00  E=-7.378691D-01  Symmetry=a'

 Vector    8  Occ=2.000000D+00  E=-6.182019D-01  Symmetry=a'

 Vector    9  Occ=2.000000D+00  E=-5.732769D-01  Symmetry=a"

 Vector   10  Occ=2.000000D+00  E=-5.714772D-01  Symmetry=a'

 Vector   11  Occ=2.000000D+00  E=-5.214668D-01  Symmetry=a'

 Vector   12  Occ=2.000000D+00  E=-3.445147D-01  Symmetry=a"

 Vector   13  Occ=0.000000D+00  E= 3.149654D-02  Symmetry=a'

 Vector   14  Occ=0.000000D+00  E= 4.875701D-02  Symmetry=a'

 Vector   15  Occ=0.000000D+00  E= 5.365036D-02  Symmetry=a'

 Vector   16  Occ=0.000000D+00  E= 7.006454D-02  Symmetry=a'

 Vector   17  Occ=0.000000D+00  E= 1.101283D-01  Symmetry=a"

 Vector   18  Occ=0.000000D+00  E= 1.182528D-01  Symmetry=a"

 Vector   19  Occ=0.000000D+00  E= 1.261353D-01  Symmetry=a'

 Vector   20  Occ=0.000000D+00  E= 1.292964D-01  Symmetry=a'

 Vector   21  Occ=0.000000D+00  E= 1.547746D-01  Symmetry=a'

 Vector   22  Occ=0.000000D+00  E= 1.778136D-01  Symmetry=a'

 Vector   23  Occ=0.000000D+00  E= 1.974972D-01  Symmetry=a'

 Vector   24  Occ=0.000000D+00  E= 2.047203D-01  Symmetry=a"

 Vector   25  Occ=0.000000D+00  E= 2.107119D-01  Symmetry=a'

 Vector   26  Occ=0.000000D+00  E= 2.256089D-01  Symmetry=a'

 Vector   27  Occ=0.000000D+00  E= 2.362543D-01  Symmetry=a'

 Vector   28  Occ=0.000000D+00  E= 2.502094D-01  Symmetry=a"

 Vector   29  Occ=0.000000D+00  E= 3.049736D-01  Symmetry=a'

 Vector   30  Occ=0.000000D+00  E= 3.074088D-01  Symmetry=a'

 Vector   31  Occ=0.000000D+00  E= 3.567238D-01  Symmetry=a'

 Vector   32  Occ=0.000000D+00  E= 3.570089D-01  Symmetry=a"

 Vector   33  Occ=0.000000D+00  E= 3.747531D-01  Symmetry=a'

 Vector   34  Occ=0.000000D+00  E= 4.034267D-01  Symmetry=a"

 Vector   35  Occ=0.000000D+00  E= 4.041882D-01  Symmetry=a'

 Vector   36  Occ=0.000000D+00  E= 4.205357D-01  Symmetry=a'

 Vector   37  Occ=0.000000D+00  E= 4.451982D-01  Symmetry=a'

 Vector   38  Occ=0.000000D+00  E= 4.512901D-01  Symmetry=a"

 Vector   39  Occ=0.000000D+00  E= 4.981988D-01  Symmetry=a'

 Vector   40  Occ=0.000000D+00  E= 5.161154D-01  Symmetry=a'

       Multipole analysis of the density wrt the origin
       ------------------------------------------------

     L   x y z        total         open         nuclear
     -   - - -        -----         ----         -------
     0   0 0 0     -0.000000      0.000000     24.000000

     1   1 0 0     -0.712205      0.000000     -0.306124
     1   0 1 0      0.274843      0.000000      0.305897
     1   0 0 1     -0.000000      0.000000      0.000000

     2   2 0 0    -12.769648      0.000000     22.154942
     2   1 1 0     -2.132986      0.000000     -2.103788
     2   1 0 1      0.000000      0.000000      0.000000
     2   0 2 0    -11.397041      0.000000    105.175307
     2   0 1 1      0.000000      0.000000      0.000000

          Total MP2 energy          -153.398610342698
         Total SCF energy =   -152.915703127294
          Total MP2 energy          -153.398610342698
@    8    -153.39861034 -2.0D-10  0.00000  0.00000  0.00001  0.00002    139.9
@    8    -153.39861034 -2.0D-10  0.00000  0.00000  0.00001  0.00002    139.9

 Output coordinates in angstroms (scale by  1.889725989 to convert to a.u.)

  No.       Tag          Charge          X              Y              Z
 ---- ---------------- ---------- -------------- -------------- --------------
    1 O                    8.0000     0.26514174     1.15503631     0.00000000
    2 C                    6.0000    -0.42815925    -0.03831649     0.00000000
    3 C                    6.0000     0.20915411    -1.22440149     0.00000000
    4 H                    1.0000    -0.36813546     1.88362222     0.00000000
    5 H                    1.0000    -1.52060300     0.03661988     0.00000000
    6 H                    1.0000    -0.37940313    -2.14119840     0.00000000
    7 H                    1.0000     1.29904451    -1.28115242     0.00000000

         Total SCF energy =   -152.915703127294
          Total MP2 energy          -153.398610342698
         Total SCF energy =   -152.915671215045
          Total MP2 energy          -153.398610135779
         Total SCF energy =   -152.915734586987
          Total MP2 energy          -153.398610134198
         Total SCF energy =   -152.915704975459
          Total MP2 energy          -153.398610030215
         Total SCF energy =   -152.915700648312
          Total MP2 energy          -153.398610036059
         Total SCF energy =   -152.915703105699
          Total MP2 energy          -153.398610334582
         Total SCF energy =   -152.915703105699
          Total MP2 energy          -153.398610334582
         Total SCF energy =   -152.915722869986
          Total MP2 energy          -153.398609981146
         Total SCF energy =   -152.915682620302
          Total MP2 energy          -153.398609981744
         Total SCF energy =   -152.915689447787
          Total MP2 energy          -153.398609950941
         Total SCF energy =   -152.915715994953
          Total MP2 energy          -153.398609948302
         Total SCF energy =   -152.915703041279
          Total MP2 energy          -153.398610282379
         Total SCF energy =   -152.915703041279
          Total MP2 energy          -153.398610282379
         Total SCF energy =   -152.915688935465
          Total MP2 energy          -153.398609986094
         Total SCF energy =   -152.915716572390
          Total MP2 energy          -153.398609985443
         Total SCF energy =   -152.915725262323
          Total MP2 energy          -153.398609937199
         Total SCF energy =   -152.915680154677
          Total MP2 energy          -153.398609938239
         Total SCF energy =   -152.915703063318
          Total MP2 energy          -153.398610301210
         Total SCF energy =   -152.915703063318
          Total MP2 energy          -153.398610301210
         Total SCF energy =   -152.915721862837
          Total MP2 energy          -153.398610215047
         Total SCF energy =   -152.915684125687
          Total MP2 energy          -153.398610217835
         Total SCF energy =   -152.915685075867
          Total MP2 energy          -153.398610177855
         Total SCF energy =   -152.915720832242
          Total MP2 energy          -153.398610172529
         Total SCF energy =   -152.915703119097
          Total MP2 energy          -153.398610341128
         Total SCF energy =   -152.915703119096
          Total MP2 energy          -153.398610341128
         Total SCF energy =   -152.915713036762
          Total MP2 energy          -153.398610162178
         Total SCF energy =   -152.915692854323
          Total MP2 energy          -153.398610162070
         Total SCF energy =   -152.915702783884
          Total MP2 energy          -153.398610309810
         Total SCF energy =   -152.915703393072
          Total MP2 energy          -153.398610309291
         Total SCF energy =   -152.915703111531
          Total MP2 energy          -153.398610331528
         Total SCF energy =   -152.915703111531
          Total MP2 energy          -153.398610331528
         Total SCF energy =   -152.915708124723
          Total MP2 energy          -153.398610271057
         Total SCF energy =   -152.915697978015
          Total MP2 energy          -153.398610269691
         Total SCF energy =   -152.915709590946
          Total MP2 energy          -153.398610200815
         Total SCF energy =   -152.915696377456
          Total MP2 energy          -153.398610201392
         Total SCF energy =   -152.915703113446
          Total MP2 energy          -153.398610332862
         Total SCF energy =   -152.915703113446
          Total MP2 energy          -153.398610332862
         Total SCF energy =   -152.915694287401
          Total MP2 energy          -153.398610156358
         Total SCF energy =   -152.915711594474
          Total MP2 energy          -153.398610156628
         Total SCF energy =   -152.915703229758
          Total MP2 energy          -153.398610317517
         Total SCF energy =   -152.915702965310
          Total MP2 energy          -153.398610318584
         Total SCF energy =   -152.915703113205
          Total MP2 energy          -153.398610332578
         Total SCF energy =   -152.915703113205
          Total MP2 energy          -153.398610332578
 Zero-Point correction to Energy  =   35.253 kcal/mol  (  0.056179 au)
 Thermal correction to Energy     =   37.675 kcal/mol  (  0.060038 au)
 Thermal correction to Enthalpy   =   38.267 kcal/mol  (  0.060982 au)
 Total Entropy                    =   62.003 cal/mol-K
   - Translational                =   37.256 cal/mol-K (mol. weight =  44.0262)
   - Rotational                   =   21.563 cal/mol-K (symmetry #  =        1)
   - Vibrational                  =    3.184 cal/mol-K
   - Translational                  =    2.979 cal/mol-K
   - Rotational                     =    2.979 cal/mol-K
   - Vibrational                    =    5.990 cal/mol-K
 P.Frequency       -0.00       -0.00        0.00        0.00        0.00        0.00
 P.Frequency      266.59      469.85      710.44      839.38      946.31      952.96
 P.Frequency     1129.92     1282.70     1340.04     1429.12     1712.94     3201.56
 P.Frequency     3216.36     3322.42     3850.75

 Normal Eigenvalue ||           Projected Infra Red Intensities
  Mode   [cm**-1]  || [atomic units] [(debye/angs)**2] [(KM/mol)] [arbitrary]
 ------ ---------- || -------------- ----------------- ---------- -----------
    1       -0.000 ||    0.000979           0.023         0.954       0.289
    2       -0.000 ||    0.009747           0.225         9.502       2.878
    3        0.000 ||    0.000452           0.010         0.441       0.134
    4        0.000 ||    0.000596           0.014         0.581       0.176
    5        0.000 ||    0.005113           0.118         4.984       1.509
    6        0.000 ||    0.000934           0.022         0.910       0.276
    7      266.586 ||    0.096112           2.217        93.694      28.375
    8      469.847 ||    0.003858           0.089         3.761       1.139
    9      710.444 ||    0.022299           0.514        21.738       6.583
   10      839.382 ||    0.049278           1.137        48.038      14.548
   11      946.313 ||    0.053320           1.230        51.979      15.741
   12      952.961 ||    0.035225           0.813        34.339      10.399
   13     1129.920 ||    0.020347           0.469        19.835       6.007
   14     1282.700 ||    0.190715           4.400       185.919      56.304
   15     1340.039 ||    0.005611           0.129         5.470       1.657
   16     1429.121 ||    0.000083           0.002         0.081       0.025
   17     1712.935 ||    0.104548           2.412       101.918      30.865
   18     3201.561 ||    0.006341           0.146         6.181       1.872
   19     3216.356 ||    0.006051           0.140         5.899       1.786
   20     3322.415 ||    0.003143           0.073         3.064       0.928
   21     3850.751 ||    0.096570           2.228        94.141      28.510
 ----------------------------------------------------------------------------

 Total times  cpu:      651.7s     wall:      671.2s
