 Gaussian 16, Revision A.03,
 Gaussian 16:  ES64L-G16RevA.03 25-Dec-2016

 -------------------------------------------------------
 # MP2/6-31G** Opt=(Recalc=50) Freq=(vibrot, anharmonic)
 -------------------------------------------------------

 -------
 Me,H,Me
 -------
 Symbolic Z-matrix:
 Charge =  0 Multiplicity = 1

 SCF Done:  E(RHF) =  -343.734603126     A.U. after   15 cycles
 E2 =    -0.1044450555D+01 EUMP2 =    -0.34477905368069D+03
 E2 =    -0.1044450555D+01 EUMP2 =    -0.34477905368069D+03
 SCF Done:  E(RHF) =  -343.738112002     A.U. after   15 cycles
 E2 =    -0.1046093701D+01 EUMP2 =    -0.34478420570283D+03
 SCF Done:  E(RHF) =  -343.738397597     A.U. after   13 cycles
 E2 =    -0.1045990466D+01 EUMP2 =    -0.34478438806375D+03
 SCF Done:  E(RHF) =  -343.737973623     A.U. after   13 cycles
 E2 =    -0.1046597300D+01 EUMP2 =    -0.34478457092284D+03
 SCF Done:  E(RHF) =  -343.737824936     A.U. after   11 cycles
 E2 =    -0.1046821690D+01 EUMP2 =    -0.34478464662540D+03
 SCF Done:  E(RHF) =  -343.737970928     A.U. after   12 cycles
 E2 =    -0.1046728341D+01 EUMP2 =    -0.34478469926918D+03
 SCF Done:  E(RHF) =  -343.737954013     A.U. after   10 cycles
 E2 =    -0.1046751188D+01 EUMP2 =    -0.34478470520052D+03
 SCF Done:  E(RHF) =  -343.738037343     A.U. after   12 cycles
 E2 =    -0.1046673664D+01 EUMP2 =    -0.34478471100718D+03
 SCF Done:  E(RHF) =  -343.738046796     A.U. after    8 cycles
 E2 =    -0.1046664327D+01 EUMP2 =    -0.34478471112285D+03
 Optimization completed.
    -- Stationary point found.
 Normal termination of Gaussian 16 at Tue Oct 27 13:18:50 2020.

 ----------------------------------------------------------------------
 #N Geom=AllCheck Guess=TCheck SCRF=Check GenChk RMP2(FC)/6-31G(d,p) Fr
 eq
 ----------------------------------------------------------------------

 Structure from the checkpoint file:  "2.chk"
 -------
 Me,H,Me
 -------
 Charge =  0 Multiplicity = 1

                         Standard orientation:
 ---------------------------------------------------------------------
 Center     Atomic      Atomic             Coordinates (Angstroms)
 Number     Number       Type             X           Y           Z
 ---------------------------------------------------------------------
      1          6           0       -1.193954   -0.089563    0.000007
      2          6           0        0.009487   -0.738604    0.000104
      3          6           0        1.247513    0.008312    0.000098
      4          8           0       -1.292727    1.241913   -0.000033
      5          8           0        1.265784    1.262153    0.000014
      6          6           0        2.545566   -0.759052   -0.000068
      7          6           0       -2.519648   -0.775443   -0.000040
      8          1           0        0.029886   -1.817552    0.000151
      9          1           0       -0.350589    1.573777    0.000022
     10          1           0       -2.404600   -1.855900   -0.000009
     11          1           0       -3.086945   -0.471636   -0.878983
     12          1           0       -3.087032   -0.471594    0.878831
     13          1           0        2.601147   -1.400510   -0.879674
     14          1           0        2.601340   -1.400677    0.879384
     15          1           0        3.378545   -0.062338   -0.000167
 ---------------------------------------------------------------------

 SCF Done:  E(RHF) =  -343.738046796     A.U. after    1 cycles
 E2 =    -0.1046664339D+01 EUMP2 =    -0.34478471113523D+03
 E2 =    -0.1046664339D+01 EUMP2 =    -0.34478471113523D+03

                      1                      2                      3
                      A                      A                      A
 Frequencies --     64.6092               113.9784               150.7482
 Red. masses --      1.1008                 1.8850                 1.7016
 Frc consts  --      0.0027                 0.0144                 0.0228
 IR Inten    --      0.2810                 0.8670                 0.1235

                      4                      5                      6
                      A                      A                      A
 Frequencies --    181.8552               228.0525               369.7917
 Red. masses --      2.8002                 3.3775                 3.9456
 Frc consts  --      0.0546                 0.1035                 0.3179
 IR Inten    --      0.0232                 1.5563                 4.2961

                      7                      8                      9
                      A                      A                      A
 Frequencies --    394.5610               508.7709               541.5830
 Red. masses --      3.4473                 4.1191                 3.0974
 Frc consts  --      0.3162                 0.6282                 0.5353
 IR Inten    --      3.0866                13.6894                 0.0140

                     10                     11                     12
                      A                      A                      A
 Frequencies --    619.5620               657.3021               769.0422
 Red. masses --      2.9170                 3.9206                 1.1144
 Frc consts  --      0.6597                 0.9980                 0.3883
 IR Inten    --      1.9567                15.5742                33.4065

                     13                     14                     15
                      A                      A                      A
 Frequencies --    939.3434               959.7221               960.9027
 Red. masses --      3.1801                 1.0891                 4.0206
 Frc consts  --      1.6533                 0.5910                 2.1872
 IR Inten    --     32.4483                95.9998                 0.6272

                     16                     17                     18
                      A                      A                      A
 Frequencies --   1033.2622              1061.4599              1063.8980
 Red. masses --      1.8506                 1.4385                 1.7041
 Frc consts  --      1.1641                 0.9549                 1.1364
 IR Inten    --      9.9098                 9.5280                 4.9659

                     19                     20                     21
                      A                      A                      A
 Frequencies --   1090.9502              1221.2037              1308.5080
 Red. masses --      1.5695                 1.4262                 2.8994
 Frc consts  --      1.1006                 1.2531                 2.9249
 IR Inten    --      0.6172                14.0597               164.5498

                     22                     23                     24
                      A                      A                      A
 Frequencies --   1431.3466              1438.0162              1464.4487
 Red. masses --      1.3299                 1.6186                 1.6502
 Frc consts  --      1.6053                 1.9721                 2.0852
 IR Inten    --     39.1348                42.2873                44.8911

                     25                     26                     27
                      A                      A                      A
 Frequencies --   1501.6705              1527.2173              1528.0559
 Red. masses --      2.1282                 1.0728                 1.0459
 Frc consts  --      2.8275                 1.4743                 1.4388
 IR Inten    --    122.8907                 3.3608                 7.8837

                     28                     29                     30
                      A                      A                      A
 Frequencies --   1532.5722              1547.0775              1701.2549
 Red. masses --      1.0485                 1.2034                 3.7425
 Frc consts  --      1.4510                 1.6971                 6.3818
 IR Inten    --      6.1382                30.9737               189.5876

                     31                     32                     33
                      A                      A                      A
 Frequencies --   1736.6621              3131.6280              3137.4496
 Red. masses --      5.2387                 1.0361                 1.0358
 Frc consts  --      9.3091                 5.9869                 6.0073
 IR Inten    --    350.4986                 2.6371                 6.0655

                     34                     35                     36
                      A                      A                      A
 Frequencies --   3215.1616              3220.2446              3225.9874
 Red. masses --      1.0711                 1.1009                 1.1013
 Frc consts  --      6.5235                 6.7260                 6.7525
 IR Inten    --    229.0557                 6.9688                 5.7228

                     37                     38                     39
                      A                      A                      A
 Frequencies --   3255.5363              3263.3610              3304.7405
 Red. masses --      1.1033                 1.1037                 1.0927
 Frc consts  --      6.8894                 6.9253                 7.0314
 IR Inten    --      9.9932                11.3884                 2.4580

 - Thermochemistry -
 -------------------
 Temperature   298.150 Kelvin.  Pressure   1.00000 Atm.
 Atom     1 has atomic number  6 and mass  12.00000

 Molecular mass:   100.05243 amu.
 Principal axes and moments of inertia in atomic units:
                           1         2         3
     Eigenvalues --   312.105711055.259931345.10865
           X            0.99999  -0.00339  -0.00000
           Y            0.00339   0.99999   0.00000
           Z            0.00000  -0.00000   1.00000
 This molecule is an asymmetric top.
 Rotational symmetry number  1.
 Rotational temperatures (Kelvin)      0.27751     0.08208     0.06439
 Rotational constants (GHZ):           5.78247     1.71023     1.34171
 Zero-point vibrational energy     331374.8 (Joules/Mol)
                                   79.20047 (Kcal/Mol)
 Warning -- explicit consideration of  10 degrees of freedom as
           vibrations may cause significant error
 Vibrational temperatures:     92.96   163.99   216.89   261.65   328.12
          (Kelvin)            532.05   567.69   732.01   779.22   891.41
                              945.71  1106.48  1351.51  1380.83  1382.52
                             1486.63  1527.20  1530.71  1569.63  1757.04
                             1882.65  2059.39  2068.98  2107.02  2160.57
                             2197.33  2198.53  2205.03  2225.90  2447.73
                             2498.67  4505.71  4514.09  4625.90  4633.21
                             4641.48  4683.99  4695.25  4754.78

 Zero-point correction=                           0.126214 (Hartree/Particle)
 Thermal correction to Energy=                    0.134064
 Thermal correction to Enthalpy=                  0.135008
 Thermal correction to Gibbs Free Energy=         0.093787
 Sum of electronic and zero-point Energies=           -344.658497
 Sum of electronic and thermal Energies=              -344.650647
 Sum of electronic and thermal Enthalpies=            -344.649703
 Sum of electronic and thermal Free Energies=         -344.690924

                     E (Thermal)             CV                S
                      KCal/Mol        Cal/Mol-Kelvin    Cal/Mol-Kelvin
 Total                   84.126             27.016             86.757
 Electronic               0.000              0.000              0.000
 Translational            0.889              2.981             39.720
 Rotational               0.889              2.981             27.585
 Vibrational             82.349             21.054             19.453
 Vibration     1          0.597              1.971              4.311
 Vibration     2          0.607              1.938              3.200
 Vibration     3          0.618              1.902              2.663
 Vibration     4          0.630              1.864              2.309
 Vibration     5          0.651              1.798              1.894
 Vibration     6          0.742              1.534              1.081
 Vibration     7          0.762              1.482              0.983
 Vibration     8          0.864              1.231              0.637
 Vibration     9          0.897              1.158              0.562
 Vibration    10          0.980              0.991              0.417

 E2 =    -0.1046664606D+01 EUMP2 =    -0.34478471110661D+03
 E2 =    -0.1046664606D+01 EUMP2 =    -0.34478471110661D+03
 E2 =    -0.1046664606D+01 EUMP2 =    -0.34478471110407D+03
 E2 =    -0.1046664606D+01 EUMP2 =    -0.34478471110407D+03
 E2 =    -0.1046664503D+01 EUMP2 =    -0.34478471105469D+03
 E2 =    -0.1046664503D+01 EUMP2 =    -0.34478471105469D+03
 E2 =    -0.1046664508D+01 EUMP2 =    -0.34478471103578D+03
 E2 =    -0.1046664508D+01 EUMP2 =    -0.34478471103578D+03
 E2 =    -0.1046665718D+01 EUMP2 =    -0.34478470350890D+03
 SCF Done:  E(RHF) =  -343.738037529     A.U. after    8 cycles
 E2 =    -0.1046665594D+01 EUMP2 =    -0.34478470312273D+03
 E2 =    -0.1046665594D+01 EUMP2 =    -0.34478470312273D+03
 SCF Done:  E(RHF) =  -343.738037447     A.U. after    8 cycles
 E2 =    -0.1046665621D+01 EUMP2 =    -0.34478470306727D+03
 E2 =    -0.1046665621D+01 EUMP2 =    -0.34478470306727D+03
 SCF Done:  E(RHF) =  -343.738054171     A.U. after    9 cycles
 E2 =    -0.1046646856D+01 EUMP2 =    -0.34478470102764D+03
 E2 =    -0.1046646856D+01 EUMP2 =    -0.34478470102764D+03
 SCF Done:  E(RHF) =  -343.738016414     A.U. after   10 cycles
 E2 =    -0.1046684689D+01 EUMP2 =    -0.34478470110243D+03
 E2 =    -0.1046684689D+01 EUMP2 =    -0.34478470110243D+03
 SCF Done:  E(RHF) =  -343.737876080     A.U. after   10 cycles
 E2 =    -0.1046823512D+01 EUMP2 =    -0.34478469959250D+03
 E2 =    -0.1046823512D+01 EUMP2 =    -0.34478469959250D+03
 SCF Done:  E(RHF) =  -343.738191622     A.U. after   10 cycles
 E2 =    -0.1046507912D+01 EUMP2 =    -0.34478469953422D+03
 E2 =    -0.1046507912D+01 EUMP2 =    -0.34478469953422D+03
 SCF Done:  E(RHF) =  -343.738157364     A.U. after    9 cycles
 E2 =    -0.1046539958D+01 EUMP2 =    -0.34478469732172D+03
 E2 =    -0.1046539958D+01 EUMP2 =    -0.34478469732172D+03
 SCF Done:  E(RHF) =  -343.737904249     A.U. after    9 cycles
 E2 =    -0.1046793008D+01 EUMP2 =    -0.34478469725725D+03
 E2 =    -0.1046793008D+01 EUMP2 =    -0.34478469725725D+03
 SCF Done:  E(RHF) =  -343.738164567     A.U. after   10 cycles
 E2 =    -0.1046532725D+01 EUMP2 =    -0.34478469729177D+03
 E2 =    -0.1046532725D+01 EUMP2 =    -0.34478469729177D+03

 Alpha  occ. eigenvalues --  -20.59082 -20.54764 -11.34003 -11.33986 -11.24291
 Alpha  occ. eigenvalues --  -11.23425 -11.21727  -1.41606  -1.36354  -1.07918
 Alpha  occ. eigenvalues --   -1.02307  -0.97011  -0.81368  -0.77507  -0.68598
 Alpha  occ. eigenvalues --   -0.66322  -0.62280  -0.59977  -0.59686  -0.58802
 Alpha  occ. eigenvalues --   -0.56947  -0.54491  -0.54161  -0.53606  -0.49792
 Alpha  occ. eigenvalues --   -0.41510  -0.34666
 Alpha virt. eigenvalues --    0.10928   0.23739   0.24074   0.25452   0.27591
 Alpha virt. eigenvalues --    0.30193   0.32087   0.32858   0.34990   0.35095
 Alpha virt. eigenvalues --    0.39481   0.40147   0.45376   0.53132   0.57783

 Mulliken charges:
               1
     1  C    0.359452
     2  C   -0.273509
     3  C    0.405623
     4  O   -0.542763
     5  O   -0.512064
     6  C   -0.410113
     7  C   -0.380609
     8  H    0.120556
     9  H    0.381656
    10  H    0.126887
    11  H    0.149814
    12  H    0.149815
    13  H    0.138774
    14  H    0.138769
    15  H    0.147711
 Sum of Mulliken charges =  -0.00000

 Dipole moment (field-independent basis, Debye):
    X=             -0.2335    Y=             -2.8797    Z=              0.0000  Tot=              2.8891
 Quadrupole moment (field-independent basis, Debye-Ang):
   XX=            -39.5714   YY=            -43.6546   ZZ=            -42.4728
   XY=             -0.6054   XZ=             -0.0002   YZ=              0.0001

  Exact polarizability:  83.661  -2.120  59.219   0.001  -0.001  35.266
 Approx polarizability:  58.497  -2.355  55.125   0.001  -0.001  35.428

 SCF Done:  E(RHF) =  -343.737898656     A.U. after   10 cycles
 E2 =    -0.1046798372D+01 EUMP2 =    -0.34478469702824D+03
