============================== echo of input deck ==============================
echo
start 2C
title "Me,H,Me Chelate"
charge 0

geometry
 zmatrix
  O
  C  1  R1
  C  2  R2  1  A1
  C  3  R3  2  A2  1  D0
  O  4  R4  3  A3  2  D0
  H  1  R5  2  A4  3  D0
  C  2  R6  3  A5  4  D180
  H  3  R7  2  A6  1  D180
  C  4  R8  3  A7  2  D180
  H  7  R9  2  A8  1  D1
  H  7  R10 2  A9  1  D2
  H  7  R11 2  A10 1  D3
  H  9  R12 4  A11 5  D4
  H  9  R13 4  A12 5  D5
  H  9  R14 4  A13 5  D6
  variables
    R1  1.329
    R2  1.363
    A1  124.5
    R3  1.440
    A2  119.5
    R4  1.249
    A3  123.5
    R5  0.994
    A4  105.4
    R6  1.485
    A5  122.5
    R7  1.078
    A6  120.0
    R8  1.499
    A7  117.6
    R9  1.100
    A8  110.0
    D1  180.0
    R10 1.100
    A9  110.0
    D2  60.00
    R11 1.100
    A10 110.0
    D3  -60.0
    R12 1.100
    A11 110.0
    D4  0.000
    R13 1.100
    A12 110.0
    D5  120.0
    R14 1.100
    A13 110.0
    D6  -120.
  constants
    D0  0.000
    D180 180.0
 end
end

basis spherical
 * library aug-cc-pVDZ
end

set lindep:n_dep 0

set cphf:maxsub 95
set cphf:maxiter 999
set int:acc_std 1d-16
set fock:densityscreen f

scf
 maxiter 99
 vectors input atomic
 thresh 1d-9
 tol2e 1d-15
end

mp2
 freeze atomic
 tight
end

driver
 clear
 maxiter 99
 tight
end

set "mp2:aotol2e fock" 1d-15
set mp2:aotol2e 1d-15
set mp2:backtol 1d-15

task mp2 optimize
task mp2 frequencies

================================================================================

         Total SCF energy =   -343.772909610813
          Total MP2 energy          -344.871599519648
@ Step       Energy      Delta E   Gmax     Grms     Xrms     Xmax   Walltime
@ ---- ---------------- -------- -------- -------- -------- -------- --------
@    0    -344.87159952  0.0D+00  0.01619  0.00567  0.00000  0.00000    325.0
         Total SCF energy =   -343.766709240965
          Total MP2 energy          -344.870513222289
         Total SCF energy =   -343.772171507820
          Total MP2 energy          -344.872920675162
@    1    -344.87292068 -1.3D-03  0.01332  0.00378  0.02401  0.08218    753.8
         Total SCF energy =   -343.766955790250
          Total MP2 energy          -344.871688430218
         Total SCF energy =   -343.771354107073
          Total MP2 energy          -344.873477772539
@    2    -344.87347777 -5.6D-04  0.00371  0.00102  0.02290  0.05888   1171.3
         Total SCF energy =   -343.770310276588
          Total MP2 energy          -344.873414735978
         Total SCF energy =   -343.771041948250
          Total MP2 energy          -344.873588042556
@    3    -344.87358804 -1.1D-04  0.00115  0.00040  0.01763  0.04736   1574.6
         Total SCF energy =   -343.770990587171
          Total MP2 energy          -344.873589900253
         Total SCF energy =   -343.771027246001
          Total MP2 energy          -344.873600064085
@    4    -344.87360006 -1.2D-05  0.00056  0.00020  0.00310  0.00809   1973.0
         Total SCF energy =   -343.771042198093
          Total MP2 energy          -344.873602909003
         Total SCF energy =   -343.771039423470
          Total MP2 energy          -344.873604200488
@    5    -344.87360420 -4.1D-06  0.00028  0.00007  0.00161  0.00431   2360.4
         Total SCF energy =   -343.771030765813
          Total MP2 energy          -344.873604771540
         Total SCF energy =   -343.771031933641
          Total MP2 energy          -344.873604783300
@    6    -344.87360478 -5.8D-07  0.00008  0.00003  0.00060  0.00280   2734.7
         Total SCF energy =   -343.771025539128
          Total MP2 energy          -344.873604806019
         Total SCF energy =   -343.771025539128
          Total MP2 energy          -344.873604806019
@    7    -344.87360481 -2.3D-08  0.00005  0.00002  0.00051  0.00204   3049.4
         Total SCF energy =   -343.771025995117
          Total MP2 energy          -344.873604867087
         Total SCF energy =   -343.771025995117
          Total MP2 energy          -344.873604867087
@    8    -344.87360487 -6.1D-08  0.00001  0.00000  0.00019  0.00086   3361.1
         Total SCF energy =   -343.771025341738
          Total MP2 energy          -344.873604867349
         Total SCF energy =   -343.771025341738
          Total MP2 energy          -344.873604867349
@    9    -344.87360487 -2.6D-10  0.00001  0.00000  0.00005  0.00014   3672.4
         Total SCF energy =   -343.771024921595
          Total MP2 energy          -344.873604866240
         Total SCF energy =   -343.771024921595
          Total MP2 energy          -344.873604866240
@   10    -344.87360487  1.1D-09  0.00001  0.00000  0.00009  0.00022   3983.7
         Total SCF energy =   -343.771024563275
          Total MP2 energy          -344.873604863178
         Total SCF energy =   -343.771024563275
          Total MP2 energy          -344.873604863178
@   11    -344.87360486  3.1D-09  0.00002  0.00001  0.00014  0.00032   4294.4
         Total SCF energy =   -343.771024661274

 Vector   78  Occ=0.000000D+00  E= 4.570810D-01  Symmetry=a'

 Vector   79  Occ=0.000000D+00  E= 4.816066D-01  Symmetry=a"

 Vector   80  Occ=0.000000D+00  E= 4.832299D-01  Symmetry=a'

 Vector   81  Occ=0.000000D+00  E= 4.989680D-01  Symmetry=a'

 Vector   82  Occ=0.000000D+00  E= 5.028778D-01  Symmetry=a"

          Total MP2 energy          -344.873604868158
         Total SCF energy =   -343.771024661274
          Total MP2 energy          -344.873604868158
@   12    -344.87360487 -5.0D-09  0.00000  0.00000  0.00008  0.00020   4602.4
         Total SCF energy =   -343.771024596704

 Vector    8  Occ=2.000000D+00  E=-1.421946D+00  Symmetry=a'

 Vector    9  Occ=2.000000D+00  E=-1.369278D+00  Symmetry=a'

 Vector   10  Occ=2.000000D+00  E=-1.079974D+00  Symmetry=a'

 Vector   11  Occ=2.000000D+00  E=-1.023703D+00  Symmetry=a'

 Vector   12  Occ=2.000000D+00  E=-9.698830D-01  Symmetry=a'

 Vector   13  Occ=2.000000D+00  E=-8.159429D-01  Symmetry=a'

 Vector   14  Occ=2.000000D+00  E=-7.787045D-01  Symmetry=a'

 Vector   15  Occ=2.000000D+00  E=-6.894642D-01  Symmetry=a'

 Vector   16  Occ=2.000000D+00  E=-6.668451D-01  Symmetry=a'

 Vector   17  Occ=2.000000D+00  E=-6.232562D-01  Symmetry=a"

 Vector   18  Occ=2.000000D+00  E=-6.036367D-01  Symmetry=a'

 Vector   19  Occ=2.000000D+00  E=-5.964116D-01  Symmetry=a"

 Vector   20  Occ=2.000000D+00  E=-5.908365D-01  Symmetry=a'

 Vector   21  Occ=2.000000D+00  E=-5.693832D-01  Symmetry=a'

 Vector   22  Occ=2.000000D+00  E=-5.471248D-01  Symmetry=a'

 Vector   23  Occ=2.000000D+00  E=-5.433283D-01  Symmetry=a"

 Vector   24  Occ=2.000000D+00  E=-5.391716D-01  Symmetry=a'

 Vector   25  Occ=2.000000D+00  E=-5.012295D-01  Symmetry=a"

 Vector   26  Occ=2.000000D+00  E=-4.215994D-01  Symmetry=a'

 Vector   27  Occ=2.000000D+00  E=-3.499643D-01  Symmetry=a"

 Vector   28  Occ=0.000000D+00  E= 3.067736D-02  Symmetry=a'

 Vector   29  Occ=0.000000D+00  E= 3.785626D-02  Symmetry=a'

 Vector   30  Occ=0.000000D+00  E= 5.057282D-02  Symmetry=a'

 Vector   31  Occ=0.000000D+00  E= 5.227658D-02  Symmetry=a"

 Vector   32  Occ=0.000000D+00  E= 6.237750D-02  Symmetry=a"

 Vector   33  Occ=0.000000D+00  E= 6.342889D-02  Symmetry=a'

 Vector   34  Occ=0.000000D+00  E= 6.788694D-02  Symmetry=a'

 Vector   35  Occ=0.000000D+00  E= 9.032094D-02  Symmetry=a'

 Vector   36  Occ=0.000000D+00  E= 9.501611D-02  Symmetry=a"

 Vector   37  Occ=0.000000D+00  E= 1.000415D-01  Symmetry=a'

 Vector   38  Occ=0.000000D+00  E= 1.138990D-01  Symmetry=a'

 Vector   39  Occ=0.000000D+00  E= 1.201872D-01  Symmetry=a"

 Vector   40  Occ=0.000000D+00  E= 1.361350D-01  Symmetry=a'

 Vector   41  Occ=0.000000D+00  E= 1.475049D-01  Symmetry=a"

 Vector   42  Occ=0.000000D+00  E= 1.477325D-01  Symmetry=a'

 Vector   43  Occ=0.000000D+00  E= 1.541573D-01  Symmetry=a'

 Vector   44  Occ=0.000000D+00  E= 1.578986D-01  Symmetry=a'

 Vector   45  Occ=0.000000D+00  E= 1.621541D-01  Symmetry=a"

 Vector   46  Occ=0.000000D+00  E= 1.697723D-01  Symmetry=a'

 Vector   47  Occ=0.000000D+00  E= 1.793941D-01  Symmetry=a'

 Vector   48  Occ=0.000000D+00  E= 1.804800D-01  Symmetry=a'

 Vector   49  Occ=0.000000D+00  E= 1.854324D-01  Symmetry=a"

 Vector   50  Occ=0.000000D+00  E= 1.937357D-01  Symmetry=a'

 Vector   51  Occ=0.000000D+00  E= 1.939838D-01  Symmetry=a"

 Vector   52  Occ=0.000000D+00  E= 2.193385D-01  Symmetry=a'

 Vector   53  Occ=0.000000D+00  E= 2.246270D-01  Symmetry=a"

 Vector   54  Occ=0.000000D+00  E= 2.421811D-01  Symmetry=a'

 Vector   55  Occ=0.000000D+00  E= 2.498874D-01  Symmetry=a'

 Vector   56  Occ=0.000000D+00  E= 2.615729D-01  Symmetry=a'

 Vector   57  Occ=0.000000D+00  E= 2.732647D-01  Symmetry=a'

 Vector   58  Occ=0.000000D+00  E= 2.773376D-01  Symmetry=a'

 Vector   59  Occ=0.000000D+00  E= 2.828940D-01  Symmetry=a"

 Vector   60  Occ=0.000000D+00  E= 2.980855D-01  Symmetry=a"

 Vector   61  Occ=0.000000D+00  E= 3.040337D-01  Symmetry=a'

 Vector   62  Occ=0.000000D+00  E= 3.115093D-01  Symmetry=a"

 Vector   63  Occ=0.000000D+00  E= 3.161884D-01  Symmetry=a'

 Vector   64  Occ=0.000000D+00  E= 3.257789D-01  Symmetry=a'

 Vector   65  Occ=0.000000D+00  E= 3.413960D-01  Symmetry=a'

 Vector   66  Occ=0.000000D+00  E= 3.499848D-01  Symmetry=a"

 Vector   67  Occ=0.000000D+00  E= 3.533027D-01  Symmetry=a'

 Vector   68  Occ=0.000000D+00  E= 3.721298D-01  Symmetry=a'

 Vector   69  Occ=0.000000D+00  E= 3.749731D-01  Symmetry=a"

 Vector   70  Occ=0.000000D+00  E= 3.881360D-01  Symmetry=a'

 Vector   71  Occ=0.000000D+00  E= 3.959168D-01  Symmetry=a'

 Vector   72  Occ=0.000000D+00  E= 4.187118D-01  Symmetry=a'

 Vector   73  Occ=0.000000D+00  E= 4.235789D-01  Symmetry=a'

 Vector   74  Occ=0.000000D+00  E= 4.248671D-01  Symmetry=a"

 Vector   75  Occ=0.000000D+00  E= 4.282781D-01  Symmetry=a'

 Vector   76  Occ=0.000000D+00  E= 4.455964D-01  Symmetry=a'

 Vector   77  Occ=0.000000D+00  E= 4.472927D-01  Symmetry=a"

 Vector   78  Occ=0.000000D+00  E= 4.570810D-01  Symmetry=a'

 Vector   79  Occ=0.000000D+00  E= 4.816066D-01  Symmetry=a"

 Vector   80  Occ=0.000000D+00  E= 4.832297D-01  Symmetry=a'

 Vector   81  Occ=0.000000D+00  E= 4.989680D-01  Symmetry=a'

 Vector   82  Occ=0.000000D+00  E= 5.028778D-01  Symmetry=a"

       Multipole analysis of the density wrt the origin
       ------------------------------------------------

     L   x y z        total         open         nuclear
     -   - - -        -----         ----         -------
     0   0 0 0     -0.000000      0.000000     54.000000

     1   1 0 0      1.456994      0.000000      0.101878
     1   0 1 0     -0.197992      0.000000     -0.075752
     1   0 0 1      0.000000      0.000000      0.000000

     2   2 0 0    -33.669386      0.000000    176.563473
     2   1 1 0      0.811523      0.000000     -0.986162
     2   1 0 1      0.000000      0.000000      0.000000
     2   0 2 0    -28.264068      0.000000    616.016377
     2   0 1 1     -0.000000      0.000000      0.000000

          Total MP2 energy          -344.873604868180
         Total SCF energy =   -343.771024596704
          Total MP2 energy          -344.873604868180
@   13    -344.87360487 -2.1D-11  0.00000  0.00000  0.00000  0.00000   4897.7
@   13    -344.87360487 -2.1D-11  0.00000  0.00000  0.00000  0.00000   4897.7

 Output coordinates in angstroms (scale by  1.889725989 to convert to a.u.)

  No.       Tag          Charge          X              Y              Z
 ---- ---------------- ---------- -------------- -------------- --------------
    1 O                    8.0000    -1.24329263    -1.29145234     0.00000000
    2 C                    6.0000     0.09271675    -1.20430128     0.00000000
    3 C                    6.0000     0.74480439     0.01159669     0.00000000
    4 C                    6.0000    -0.00910699     1.25389529     0.00000000
    5 O                    8.0000    -1.26827139     1.26059694     0.00000000
    6 H                    1.0000    -1.56781981    -0.33898066     0.00000000
    7 C                    6.0000     0.78178046    -2.53462158     0.00000000
    8 H                    1.0000     1.83531220     0.03308316     0.00000000
    9 C                    6.0000     0.75563089     2.55922260     0.00000000
   10 H                    1.0000     1.87302685    -2.41354203     0.00000000
   11 H                    1.0000     0.47434173    -3.10714539    -0.88917994
   12 H                    1.0000     0.47434173    -3.10714539     0.88917994
   13 H                    1.0000     0.05240367     3.40162056     0.00000000
   14 H                    1.0000     1.40493211     2.61205820     0.88897831
   15 H                    1.0000     1.40493211     2.61205820    -0.88897831

         Total SCF energy =   -343.771024596704
          Total MP2 energy          -344.873604868180
         Total SCF energy =   -343.771047062980
          Total MP2 energy          -344.873604622307
         Total SCF energy =   -343.771001633710
          Total MP2 energy          -344.873604622547
         Total SCF energy =   -343.771054907794
          Total MP2 energy          -344.873604632513
         Total SCF energy =   -343.770993776864
          Total MP2 energy          -344.873604633288
         Total SCF energy =   -343.771024554260
          Total MP2 energy          -344.873604841840
         Total SCF energy =   -343.771024554260
          Total MP2 energy          -344.873604841841
         Total SCF energy =   -343.771007472150
          Total MP2 energy          -344.873604535697
         Total SCF energy =   -343.771041057399
          Total MP2 energy          -344.873604535807
         Total SCF energy =   -343.771037769038
          Total MP2 energy          -344.873604483373
         Total SCF energy =   -343.771010617363
          Total MP2 energy          -344.873604483235
         Total SCF energy =   -343.771024469834
          Total MP2 energy          -344.873604771925
         Total SCF energy =   -343.771024469834
          Total MP2 energy          -344.873604771925
         Total SCF energy =   -343.771020256286
          Total MP2 energy          -344.873604492964
         Total SCF energy =   -343.771028149235
         Total SCF energy =   -343.771024565685
          Total MP2 energy          -344.873604850351
         Total SCF energy =   -343.771024565685
          Total MP2 energy          -344.873604850351
         Total SCF energy =   -343.771028761919
          Total MP2 energy          -344.873604802925
         Total SCF energy =   -343.771020278678
          Total MP2 energy          -344.873604802632
         Total SCF energy =   -343.770995781290
          Total MP2 energy          -344.873604728142
         Total SCF energy =   -343.771053132421
          Total MP2 energy          -344.873604727513
         Total SCF energy =   -343.771024572373
          Total MP2 energy          -344.873604850754
         Total SCF energy =   -343.771024572372
          Total MP2 energy          -344.873604850753
         Total SCF energy =   -343.771027791777
          Total MP2 energy          -344.873604567225
         Total SCF energy =   -343.771020764304
          Total MP2 energy          -344.873604567799
         Total SCF energy =   -343.771020495277
          Total MP2 energy          -344.873604608965
         Total SCF energy =   -343.771028133489
          Total MP2 energy          -344.873604609403
         Total SCF energy =   -343.771024310086
          Total MP2 energy          -344.873604595135
         Total SCF energy =   -343.771024310086
          Total MP2 energy          -344.873604595135
         Total SCF energy =   -343.771014364898
          Total MP2 energy          -344.873604682201
         Total SCF energy =   -343.771034456367
          Total MP2 energy          -344.873604681852
         Total SCF energy =   -343.771024799079
          Total MP2 energy          -344.873604840687
         Total SCF energy =   -343.771024325600
          Total MP2 energy          -344.873604840685
         Total SCF energy =   -343.771024583109
          Total MP2 energy          -344.873604857869
         Total SCF energy =   -343.771024583109
          Total MP2 energy          -344.873604857869
         Total SCF energy =   -343.771023940206
          Total MP2 energy          -344.873604584735
         Total SCF energy =   -343.771024650500
          Total MP2 energy          -344.873604584618
         Total SCF energy =   -343.771027691417
          Total MP2 energy          -344.873604604514
         Total SCF energy =   -343.771020922692
          Total MP2 energy          -344.873604604676
         Total SCF energy =   -343.771024317477
          Total MP2 energy          -344.873604601579
         Total SCF energy =   -343.771024317478
          Total MP2 energy          -344.873604601580
         Total SCF energy =   -343.771016318545
          Total MP2 energy          -344.873604692816
         Total SCF energy =   -343.771032524398
          Total MP2 energy          -344.873604692467
         Total SCF energy =   -343.771023253014
          Total MP2 energy          -344.873604840670
         Total SCF energy =   -343.771025874262
          Total MP2 energy          -344.873604840606
         Total SCF energy =   -343.771024569750
          Total MP2 energy          -344.873604845976
         Total SCF energy =   -343.771024569750
          Total MP2 energy          -344.873604845976
         Total SCF energy =   -343.771026353863
          Total MP2 energy          -344.873604834132
         Total SCF energy =   -343.771022762518
          Total MP2 energy          -344.873604834053
         Total SCF energy =   -343.771029206327
          Total MP2 energy          -344.873604804092
         Total SCF energy =   -343.771019851672
          Total MP2 energy          -344.873604804115
         Total SCF energy =   -343.771018175694
          Total MP2 energy          -344.873604747367
         Total SCF energy =   -343.771030773407
          Total MP2 energy          -344.873604747227
         Total SCF energy =   -343.771030035993
          Total MP2 energy          -344.873604780441
         Total SCF energy =   -343.771018975885
          Total MP2 energy          -344.873604780539
         Total SCF energy =   -343.771017982754
          Total MP2 energy          -344.873604753440
         Total SCF energy =   -343.771030976743
          Total MP2 energy          -344.873604753371
         Total SCF energy =   -343.771024569410
          Total MP2 energy          -344.873604845679
         Total SCF energy =   -343.771024569410
          Total MP2 energy          -344.873604845679
         Total SCF energy =   -343.771019731451
          Total MP2 energy          -344.873604794377
         Total SCF energy =   -343.771029308303
          Total MP2 energy          -344.873604794334
         Total SCF energy =   -343.771023879184
          Total MP2 energy          -344.873604845002
         Total SCF energy =   -343.771025257535
          Total MP2 energy          -344.873604844963
         Total SCF energy =   -343.771030572823
          Total MP2 energy          -344.873604748056
         Total SCF energy =   -343.771018378305
          Total MP2 energy          -344.873604748215
 Zero-Point correction to Energy  =   77.209 kcal/mol  (  0.123040 au)
 Thermal correction to Energy     =   82.136 kcal/mol  (  0.130893 au)
 Thermal correction to Enthalpy   =   82.729 kcal/mol  (  0.131836 au)
 Total Entropy                    =   86.534 cal/mol-K
   - Translational                =   39.702 cal/mol-K (mol. weight = 100.0524)
   - Rotational                   =   27.597 cal/mol-K (symmetry #  =        1)
   - Vibrational                  =   19.235 cal/mol-K
   - Translational                  =    2.979 cal/mol-K
   - Rotational                     =    2.979 cal/mol-K
   - Vibrational                    =   21.377 cal/mol-K
 P.Frequency       -0.00       -0.00        0.00        0.00        0.00        0.00
 P.Frequency       69.03      119.34      152.70      187.70      230.93      370.65
 P.Frequency      388.50      500.54      544.61      627.65      648.78      778.43
 P.Frequency      916.34      943.60      985.97     1002.62     1025.56     1028.50
 P.Frequency     1049.97     1186.32     1283.70     1371.39     1384.94     1410.04
 P.Frequency     1450.80     1463.15     1464.30     1467.74     1488.45     1644.43
 P.Frequency     1695.95     3061.25     3067.27     3071.14     3151.70     3156.61
 P.Frequency     3192.14     3197.66     3253.87

 Normal Eigenvalue ||           Projected Infra Red Intensities
  Mode   [cm**-1]  || [atomic units] [(debye/angs)**2] [(KM/mol)] [arbitrary]
 ------ ---------- || -------------- ----------------- ---------- -----------
    1       -0.000 ||    0.000910           0.021         0.887       0.249
    2       -0.000 ||    0.001992           0.046         1.942       0.545
    3        0.000 ||    0.002621           0.060         2.555       0.718
    4        0.000 ||    0.000015           0.000         0.015       0.004
    5        0.000 ||    0.000195           0.005         0.190       0.053
    6        0.000 ||    0.000177           0.004         0.173       0.048
    7       69.032 ||    0.000062           0.001         0.061       0.017
    8      119.343 ||    0.000938           0.022         0.914       0.257
    9      152.698 ||    0.000046           0.001         0.045       0.013
   10      187.702 ||    0.000028           0.001         0.028       0.008
   11      230.935 ||    0.002223           0.051         2.167       0.609
   12      370.654 ||    0.005125           0.118         4.996       1.403
   13      388.500 ||    0.002891           0.067         2.818       0.792
   14      500.545 ||    0.013190           0.304        12.858       3.612
   15      544.610 ||    0.000347           0.008         0.338       0.095
   16      627.653 ||    0.000065           0.002         0.064       0.018
   17      648.784 ||    0.015591           0.360        15.199       4.269
   18      778.429 ||    0.034619           0.799        33.748       9.480
   19      916.338 ||    0.038219           0.882        37.257      10.465
   20      943.603 ||    0.002836           0.065         2.764       0.777
   21      985.965 ||    0.062541           1.443        60.968      17.126
   22     1002.617 ||    0.011189           0.258        10.907       3.064
   23     1025.561 ||    0.008473           0.195         8.260       2.320
   24     1028.501 ||    0.001675           0.039         1.633       0.459
   25     1049.973 ||    0.000098           0.002         0.095       0.027
   26     1186.319 ||    0.011544           0.266        11.254       3.161
   27     1283.703 ||    0.137064           3.162       133.617      37.532
   28     1371.394 ||    0.049675           1.146        48.426      13.603
   29     1384.937 ||    0.019263           0.444        18.778       5.275
   30     1410.043 ||    0.064485           1.488        62.863      17.658
   31     1450.804 ||    0.109144           2.518       106.399      29.887
   32     1463.146 ||    0.009718           0.224         9.474       2.661
   33     1464.301 ||    0.019999           0.461        19.496       5.476
   34     1467.739 ||    0.006363           0.147         6.203       1.742
   35     1488.446 ||    0.065394           1.509        63.750      17.907
   36     1644.431 ||    0.136218           3.143       132.792      37.300
   37     1695.948 ||    0.457018          10.544       445.523     125.144
   38     3061.251 ||    0.226060           5.215       220.375      61.902
   39     3067.266 ||    0.067421           1.555        65.725      18.462
   40     3071.141 ||    0.029039           0.670        28.309       7.952
   41     3151.698 ||    0.005213           0.120         5.082       1.427
   42     3156.612 ||    0.004031           0.093         3.930       1.104
   43     3192.139 ||    0.008052           0.186         7.849       2.205
   44     3197.660 ||    0.009504           0.219         9.265       2.602
   45     3253.873 ||    0.002096           0.048         2.043       0.574
 ----------------------------------------------------------------------------

 Total times  cpu:    31827.4s     wall:    32077.9s
