============================== echo of input deck ==============================
echo
start 2O
title "Me,H,Me Open"
charge 0

geometry
 zmatrix
  O
  C  1  R1
  C  2  R2  1  A1
  C  3  R3  2  A2  1  D0
  O  4  R4  3  A3  2  D0
  H  1  R5  2  A4  3  D180
  C  2  R6  3  A5  4  D180
  H  3  R7  2  A6  1  D180
  C  4  R8  3  A7  2  D180
  H  7  R9  2  A8  1  D1
  H  7  R10 2  A9  1  D2
  H  7  R11 2  A10 1  D3
  H  9  R12 4  A11 5  D4
  H  9  R13 4  A12 5  D5
  H  9  R14 4  A13 5  D6
  variables
    R1  1.329
    R2  1.363
    A1  124.5
    R3  1.440
    A2  119.5
    R4  1.249
    A3  123.5
    R5  0.994
    A4  105.4
    R6  1.485
    A5  122.5
    R7  1.078
    A6  120.0
    R8  1.499
    A7  117.6
    R9  1.100
    A8  110.0
    D1  180.0
    R10 1.100
    A9  110.0
    D2  60.00
    R11 1.100
    A10 110.0
    D3  -60.0
    R12 1.100
    A11 110.0
    D4  0.000
    R13 1.100
    A12 110.0
    D5  120.0
    R14 1.100
    A13 110.0
    D6  -120.
  constants
    D0  0.000
    D180 180.0
 end
end

basis spherical
 * library aug-cc-pVDZ
end

set lindep:n_dep 0

set cphf:maxsub 95
set cphf:maxiter 999
set int:acc_std 1d-16
set fock:densityscreen f

scf
 maxiter 99
 vectors input atomic
 thresh 1d-9
 tol2e 1d-15
end

mp2
 freeze atomic
 tight
end

driver
 clear
 maxiter 99
 tight
end

set "mp2:aotol2e fock" 1d-15
set mp2:aotol2e 1d-15
set mp2:backtol 1d-15

task mp2 optimize
task mp2 frequencies

================================================================================

         Total SCF energy =   -343.742666367111
          Total MP2 energy          -344.842982688780
@ Step       Energy      Delta E   Gmax     Grms     Xrms     Xmax   Walltime
@ ---- ---------------- -------- -------- -------- -------- -------- --------
@    0    -344.84298269  0.0D+00  0.03123  0.00989  0.00000  0.00000    334.7
         Total SCF energy =   -343.743855753073
          Total MP2 energy          -344.845485988521
         Total SCF energy =   -343.747558027729
          Total MP2 energy          -344.848269503664
@    1    -344.84826950 -5.3D-03  0.01443  0.00410  0.10514  0.23222    789.3
         Total SCF energy =   -343.748857370440
          Total MP2 energy          -344.848679600086
         Total SCF energy =   -343.749491916980
          Total MP2 energy          -344.849599718466
@    2    -344.84959972 -1.3D-03  0.00683  0.00179  0.03928  0.11400   1226.5
         Total SCF energy =   -343.749584138156
          Total MP2 energy          -344.849742612503
         Total SCF energy =   -343.749769545508
          Total MP2 energy          -344.849881876716
@    3    -344.84988188 -2.8D-04  0.00197  0.00057  0.01555  0.04706   1654.1
         Total SCF energy =   -343.749921495593
          Total MP2 energy          -344.849903876808
         Total SCF energy =   -343.749890175794
          Total MP2 energy          -344.849907601017
@    4    -344.84990760 -2.6D-05  0.00052  0.00018  0.00293  0.00816   2066.2
         Total SCF energy =   -343.749871489857
          Total MP2 energy          -344.849909097847
         Total SCF energy =   -343.749881780010
          Total MP2 energy          -344.849910698991
@    5    -344.84991070 -3.1D-06  0.00035  0.00010  0.00189  0.00696   2461.2
         Total SCF energy =   -343.749875422497
          Total MP2 energy          -344.849911327455
         Total SCF energy =   -343.749877646884
          Total MP2 energy          -344.849911462034
@    6    -344.84991146 -7.6D-07  0.00010  0.00004  0.00062  0.00223   2853.1
         Total SCF energy =   -343.749861602400
          Total MP2 energy          -344.849911434187
         Total SCF energy =   -343.749861602400
          Total MP2 energy          -344.849911434187
@    7    -344.84991143  2.8D-08  0.00011  0.00004  0.00058  0.00140   3176.4
         Total SCF energy =   -343.749868032850
          Total MP2 energy          -344.849911607883
         Total SCF energy =   -343.749868032850
          Total MP2 energy          -344.849911607884
@    8    -344.84991161 -1.7D-07  0.00002  0.00001  0.00033  0.00071   3500.0
         Total SCF energy =   -343.749868201091

 Vector   80  Occ=0.000000D+00  E= 4.854418D-01  Symmetry=a"

 Vector   81  Occ=0.000000D+00  E= 4.901676D-01  Symmetry=a'

 Vector   82  Occ=0.000000D+00  E= 4.920208D-01  Symmetry=a"

 Vector   83  Occ=0.000000D+00  E= 5.072685D-01  Symmetry=a'

          Total MP2 energy          -344.849911609517
         Total SCF energy =   -343.749868201091
          Total MP2 energy          -344.849911609517
@    9    -344.84991161 -1.6D-09  0.00001  0.00000  0.00003  0.00012   3820.3
         Total SCF energy =   -343.749868170620

 Vector    8  Occ=2.000000D+00  E=-1.423030D+00  Symmetry=a'

 Vector    9  Occ=2.000000D+00  E=-1.351954D+00  Symmetry=a'

 Vector   10  Occ=2.000000D+00  E=-1.080495D+00  Symmetry=a'

 Vector   11  Occ=2.000000D+00  E=-1.013036D+00  Symmetry=a'

 Vector   12  Occ=2.000000D+00  E=-9.632645D-01  Symmetry=a'

 Vector   13  Occ=2.000000D+00  E=-8.247495D-01  Symmetry=a'

 Vector   14  Occ=2.000000D+00  E=-7.478638D-01  Symmetry=a'

 Vector   15  Occ=2.000000D+00  E=-6.967892D-01  Symmetry=a'

 Vector   16  Occ=2.000000D+00  E=-6.493769D-01  Symmetry=a'

 Vector   17  Occ=2.000000D+00  E=-6.280887D-01  Symmetry=a"

 Vector   18  Occ=2.000000D+00  E=-6.182057D-01  Symmetry=a'

 Vector   19  Occ=2.000000D+00  E=-5.831873D-01  Symmetry=a"

 Vector   20  Occ=2.000000D+00  E=-5.790436D-01  Symmetry=a'

 Vector   21  Occ=2.000000D+00  E=-5.574507D-01  Symmetry=a'

 Vector   22  Occ=2.000000D+00  E=-5.541532D-01  Symmetry=a"

 Vector   23  Occ=2.000000D+00  E=-5.452400D-01  Symmetry=a'

 Vector   24  Occ=2.000000D+00  E=-5.284433D-01  Symmetry=a'

 Vector   25  Occ=2.000000D+00  E=-4.791615D-01  Symmetry=a"

 Vector   26  Occ=2.000000D+00  E=-3.958227D-01  Symmetry=a'

 Vector   27  Occ=2.000000D+00  E=-3.461498D-01  Symmetry=a"

 Vector   28  Occ=0.000000D+00  E= 2.505621D-02  Symmetry=a'

 Vector   29  Occ=0.000000D+00  E= 3.838599D-02  Symmetry=a'

 Vector   30  Occ=0.000000D+00  E= 4.681677D-02  Symmetry=a'

 Vector   31  Occ=0.000000D+00  E= 4.854592D-02  Symmetry=a"

 Vector   32  Occ=0.000000D+00  E= 5.961065D-02  Symmetry=a'

 Vector   33  Occ=0.000000D+00  E= 6.259851D-02  Symmetry=a"

 Vector   34  Occ=0.000000D+00  E= 7.269964D-02  Symmetry=a'

 Vector   35  Occ=0.000000D+00  E= 8.470257D-02  Symmetry=a'

 Vector   36  Occ=0.000000D+00  E= 1.028701D-01  Symmetry=a'

 Vector   37  Occ=0.000000D+00  E= 1.042618D-01  Symmetry=a"

 Vector   38  Occ=0.000000D+00  E= 1.154727D-01  Symmetry=a'

 Vector   39  Occ=0.000000D+00  E= 1.229260D-01  Symmetry=a"

 Vector   40  Occ=0.000000D+00  E= 1.295298D-01  Symmetry=a'

 Vector   41  Occ=0.000000D+00  E= 1.396917D-01  Symmetry=a'

 Vector   42  Occ=0.000000D+00  E= 1.474066D-01  Symmetry=a'

 Vector   43  Occ=0.000000D+00  E= 1.514038D-01  Symmetry=a"

 Vector   44  Occ=0.000000D+00  E= 1.595324D-01  Symmetry=a'

 Vector   45  Occ=0.000000D+00  E= 1.661451D-01  Symmetry=a"

 Vector   46  Occ=0.000000D+00  E= 1.743855D-01  Symmetry=a'

 Vector   47  Occ=0.000000D+00  E= 1.789502D-01  Symmetry=a'

 Vector   48  Occ=0.000000D+00  E= 1.814483D-01  Symmetry=a'

 Vector   49  Occ=0.000000D+00  E= 1.871807D-01  Symmetry=a"

 Vector   50  Occ=0.000000D+00  E= 1.924183D-01  Symmetry=a"

 Vector   51  Occ=0.000000D+00  E= 1.940074D-01  Symmetry=a'

 Vector   52  Occ=0.000000D+00  E= 2.290584D-01  Symmetry=a'

 Vector   53  Occ=0.000000D+00  E= 2.335249D-01  Symmetry=a'

 Vector   54  Occ=0.000000D+00  E= 2.347230D-01  Symmetry=a"

 Vector   55  Occ=0.000000D+00  E= 2.389883D-01  Symmetry=a'

 Vector   56  Occ=0.000000D+00  E= 2.536923D-01  Symmetry=a'

 Vector   57  Occ=0.000000D+00  E= 2.705114D-01  Symmetry=a'

 Vector   58  Occ=0.000000D+00  E= 2.743032D-01  Symmetry=a'

 Vector   59  Occ=0.000000D+00  E= 2.779587D-01  Symmetry=a"

 Vector   60  Occ=0.000000D+00  E= 2.933587D-01  Symmetry=a'

 Vector   61  Occ=0.000000D+00  E= 3.036905D-01  Symmetry=a"

 Vector   62  Occ=0.000000D+00  E= 3.186377D-01  Symmetry=a'

 Vector   63  Occ=0.000000D+00  E= 3.229089D-01  Symmetry=a"

 Vector   64  Occ=0.000000D+00  E= 3.308278D-01  Symmetry=a'

 Vector   65  Occ=0.000000D+00  E= 3.515088D-01  Symmetry=a'

 Vector   66  Occ=0.000000D+00  E= 3.557817D-01  Symmetry=a"

 Vector   67  Occ=0.000000D+00  E= 3.581802D-01  Symmetry=a'

 Vector   68  Occ=0.000000D+00  E= 3.639375D-01  Symmetry=a"

 Vector   69  Occ=0.000000D+00  E= 3.649887D-01  Symmetry=a'

 Vector   70  Occ=0.000000D+00  E= 3.777808D-01  Symmetry=a'

 Vector   71  Occ=0.000000D+00  E= 3.987256D-01  Symmetry=a'

 Vector   72  Occ=0.000000D+00  E= 4.122235D-01  Symmetry=a'

 Vector   73  Occ=0.000000D+00  E= 4.148154D-01  Symmetry=a"

 Vector   74  Occ=0.000000D+00  E= 4.252217D-01  Symmetry=a'

 Vector   75  Occ=0.000000D+00  E= 4.333082D-01  Symmetry=a'

 Vector   76  Occ=0.000000D+00  E= 4.479032D-01  Symmetry=a"

 Vector   77  Occ=0.000000D+00  E= 4.484023D-01  Symmetry=a'

 Vector   78  Occ=0.000000D+00  E= 4.625866D-01  Symmetry=a'

 Vector   79  Occ=0.000000D+00  E= 4.825380D-01  Symmetry=a'

 Vector   80  Occ=0.000000D+00  E= 4.854419D-01  Symmetry=a"

 Vector   81  Occ=0.000000D+00  E= 4.901671D-01  Symmetry=a'

 Vector   82  Occ=0.000000D+00  E= 4.920203D-01  Symmetry=a"

 Vector   83  Occ=0.000000D+00  E= 5.072657D-01  Symmetry=a'

       Multipole analysis of the density wrt the origin
       ------------------------------------------------

     L   x y z        total         open         nuclear
     -   - - -        -----         ----         -------
     0   0 0 0     -0.000000      0.000000     54.000000

     1   1 0 0      1.484262      0.000000     -2.966625
     1   0 1 0     -1.468785      0.000000      1.001884
     1   0 0 1      0.000000      0.000000      0.000000

     2   2 0 0    -34.263963      0.000000    186.517646
     2   1 1 0      4.667955      0.000000     -0.989760
     2   1 0 1     -0.000000      0.000000      0.000000
     2   0 2 0    -23.797486      0.000000    645.854897
     2   0 1 1     -0.000000      0.000000      0.000000

          Total MP2 energy          -344.849911609694
         Total SCF energy =   -343.749868170620
          Total MP2 energy          -344.849911609694
@   10    -344.84991161 -1.8D-10  0.00000  0.00000  0.00001  0.00005   4137.9
@   10    -344.84991161 -1.8D-10  0.00000  0.00000  0.00001  0.00005   4137.9

 Output coordinates in angstroms (scale by  1.889725989 to convert to a.u.)

  No.       Tag          Charge          X              Y              Z
 ---- ---------------- ---------- -------------- -------------- --------------
    1 O                    8.0000    -1.29748420    -1.35067374     0.00000000
    2 C                    6.0000     0.05756609    -1.19384007     0.00000000
    3 C                    6.0000     0.61814031     0.05078658     0.00000000
    4 C                    6.0000    -0.11391160     1.33741652     0.00000000
    5 O                    8.0000    -1.34696301     1.42623217     0.00000000
    6 H                    1.0000    -1.49700079    -2.29874915     0.00000000
    7 C                    6.0000     0.86862359    -2.46084823     0.00000000
    8 H                    1.0000     1.71011095     0.08729635     0.00000000
    9 C                    6.0000     0.76756826     2.57851236     0.00000000
   10 H                    1.0000     1.94421548    -2.24052816     0.00000000
   11 H                    1.0000     0.63186688    -3.06366231    -0.89362856
   12 H                    1.0000     0.63186688    -3.06366231     0.89362856
   13 H                    1.0000     0.13662281     3.47658184     0.00000000
   14 H                    1.0000     1.42005254     2.57813381     0.88910869
   15 H                    1.0000     1.42005254     2.57813381    -0.88910869

         Total SCF energy =   -343.749868170620
          Total MP2 energy          -344.849911609694
         Total SCF energy =   -343.749891304301
          Total MP2 energy          -344.849911394537
         Total SCF energy =   -343.749844584745
          Total MP2 energy          -344.849911391482
         Total SCF energy =   -343.749837707174
          Total MP2 energy          -344.849911303559
         Total SCF energy =   -343.749897988523
          Total MP2 energy          -344.849911306599
         Total SCF energy =   -343.749868143441
          Total MP2 energy          -344.849911597626
         Total SCF energy =   -343.749868143441
          Total MP2 energy          -344.849911597626
         Total SCF energy =   -343.749855686244
          Total MP2 energy          -344.849911298338
         Total SCF energy =   -343.749880020742
          Total MP2 energy          -344.849911302521
         Total SCF energy =   -343.749894067630
          Total MP2 energy          -344.849911209355
         Total SCF energy =   -343.749841423581
          Total MP2 energy          -344.849911209737
         Total SCF energy =   -343.749868054278
          Total MP2 energy          -344.849911523268
         Total SCF energy =   -343.749868054278
          Total MP2 energy          -344.849911523268
         Total SCF energy =   -343.749863454469
          Total MP2 energy          -344.849911261640
         Total SCF energy =   -343.749872152331
          Total MP2 energy          -344.849911262828
         Total SCF energy =   -343.749842617974
          Total MP2 energy          -344.849911239876
         Total SCF energy =   -343.749892962729
          Total MP2 energy          -344.849911243486
         Total SCF energy =   -343.749868107480
          Total MP2 energy          -344.849911564689
         Total SCF energy =   -343.749868107480
          Total MP2 energy          -344.849911564689
         Total SCF energy =   -343.749814685543
          Total MP2 energy          -344.849911183979
         Total SCF energy =   -343.749920758881
          Total MP2 energy          -344.849911178014
         Total SCF energy =   -343.749871438593
          Total MP2 energy          -344.849911344681
         Total SCF energy =   -343.749868143473
          Total MP2 energy          -344.849911597900
         Total SCF energy =   -343.749868143473
          Total MP2 energy          -344.849911597900
         Total SCF energy =   -343.749870208329
          Total MP2 energy          -344.849911571071
         Total SCF energy =   -343.749866030382
          Total MP2 energy          -344.849911567949
         Total SCF energy =   -343.749895372493
          Total MP2 energy          -344.849911365846
         Total SCF energy =   -343.749840468740
          Total MP2 energy          -344.849911360005
         Total SCF energy =   -343.749868160318
          Total MP2 energy          -344.849911606367
         Total SCF energy =   -343.749868160317
          Total MP2 energy          -344.849911606366
         Total SCF energy =   -343.749871238949
          Total MP2 energy          -344.849911315840
         Total SCF energy =   -343.749864472740
          Total MP2 energy          -344.849911315103
         Total SCF energy =   -343.749864372048
          Total MP2 energy          -344.849911350487
         Total SCF energy =   -343.749871407842
          Total MP2 energy          -344.849911353457
         Total SCF energy =   -343.749867887475
          Total MP2 energy          -344.849911339633
         Total SCF energy =   -343.749867887475
          Total MP2 energy          -344.849911339633
         Total SCF energy =   -343.749857891200
          Total MP2 energy          -344.849911426203
         Total SCF energy =   -343.749878082911
          Total MP2 energy          -344.849911426339
         Total SCF energy =   -343.749868872512
          Total MP2 energy          -344.849911580075
         Total SCF energy =   -343.749867395446
          Total MP2 energy          -344.849911580392
         Total SCF energy =   -343.749868156056
          Total MP2 energy          -344.849911598887
         Total SCF energy =   -343.749868156056
          Total MP2 energy          -344.849911598886
         Total SCF energy =   -343.749865891649
          Total MP2 energy          -344.849911333907
         Total SCF energy =   -343.749869860671
          Total MP2 energy          -344.849911334213
         Total SCF energy =   -343.749870649382
          Total MP2 energy          -344.849911345653
         Total SCF energy =   -343.749865110851
          Total MP2 energy          -344.849911344475
         Total SCF energy =   -343.749867893893
          Total MP2 energy          -344.849911345779
         Total SCF energy =   -343.749867893893
          Total MP2 energy          -344.849911345779
         Total SCF energy =   -343.749859351226
          Total MP2 energy          -344.849911438829
         Total SCF energy =   -343.749876647619
          Total MP2 energy          -344.849911438342
         Total SCF energy =   -343.749866317063
          Total MP2 energy          -344.849911578690
         Total SCF energy =   -343.749869949952
          Total MP2 energy          -344.849911577414
         Total SCF energy =   -343.749868143920
          Total MP2 energy          -344.849911587848
         Total SCF energy =   -343.749868143920
          Total MP2 energy          -344.849911587848
         Total SCF energy =   -343.749869446809
          Total MP2 energy          -344.849911579352
         Total SCF energy =   -343.749866824908
          Total MP2 energy          -344.849911579836
         Total SCF energy =   -343.749872545215
          Total MP2 energy          -344.849911542714
         Total SCF energy =   -343.749863654894
          Total MP2 energy          -344.849911542485
         Total SCF energy =   -343.749861800440
          Total MP2 energy          -344.849911490080
         Total SCF energy =   -343.749874298662
          Total MP2 energy          -344.849911489387
         Total SCF energy =   -343.749873199414
          Total MP2 energy          -344.849911534504
         Total SCF energy =   -343.749862984825
          Total MP2 energy          -344.849911534580
         Total SCF energy =   -343.749861304946
          Total MP2 energy          -344.849911483285
         Total SCF energy =   -343.749874779460
          Total MP2 energy          -344.849911482782
         Total SCF energy =   -343.749868143323
          Total MP2 energy          -344.849911587156
         Total SCF energy =   -343.749868143323
          Total MP2 energy          -344.849911587156
         Total SCF energy =   -343.749863255357
          Total MP2 energy          -344.849911535879
         Total SCF energy =   -343.749872932068
          Total MP2 energy          -344.849911535811
         Total SCF energy =   -343.749867968221
          Total MP2 energy          -344.849911586864
         Total SCF energy =   -343.749868317436
          Total MP2 energy          -344.849911587310
         Total SCF energy =   -343.749874079020
          Total MP2 energy          -344.849911489998
         Total SCF energy =   -343.749862021108
          Total MP2 energy          -344.849911490452
 Zero-Point correction to Energy  =   76.752 kcal/mol  (  0.122313 au)
 Thermal correction to Energy     =   81.976 kcal/mol  (  0.130637 au)
 Thermal correction to Enthalpy   =   82.568 kcal/mol  (  0.131581 au)
 Total Entropy                    =   88.703 cal/mol-K
   - Translational                =   39.702 cal/mol-K (mol. weight = 100.0524)
   - Rotational                   =   27.738 cal/mol-K (symmetry #  =        1)
   - Vibrational                  =   21.264 cal/mol-K
   - Translational                  =    2.979 cal/mol-K
   - Rotational                     =    2.979 cal/mol-K
   - Vibrational                    =   22.917 cal/mol-K
 P.Frequency       -0.00       -0.00       -0.00       -0.00        0.00        0.00
 P.Frequency       56.42      123.07      145.01      173.36      208.87      336.58
 P.Frequency      366.64      410.33      473.13      521.12      624.03      631.16
 P.Frequency      800.13      880.42      922.25      985.25     1018.99     1027.10
 P.Frequency     1049.05     1184.73     1213.43     1317.24     1363.44     1394.26
 P.Frequency     1413.69     1457.10     1467.52     1469.09     1480.34     1682.51
 P.Frequency     1734.31     3050.85     3058.45     3129.08     3143.62     3186.29
 P.Frequency     3194.39     3229.10     3792.29

 Normal Eigenvalue ||           Projected Infra Red Intensities
  Mode   [cm**-1]  || [atomic units] [(debye/angs)**2] [(KM/mol)] [arbitrary]
 ------ ---------- || -------------- ----------------- ---------- -----------
    1       -0.000 ||    0.000750           0.017         0.731       0.255
    2       -0.000 ||    0.003680           0.085         3.587       1.251
    3       -0.000 ||    0.000285           0.007         0.278       0.097
    4       -0.000 ||    0.001573           0.036         1.533       0.535
    5        0.000 ||    0.002116           0.049         2.062       0.719
    6        0.000 ||    0.000003           0.000         0.003       0.001
    7       56.419 ||    0.003637           0.084         3.546       1.237
    8      123.071 ||    0.000411           0.009         0.400       0.140
    9      145.012 ||    0.001844           0.043         1.797       0.627
   10      173.360 ||    0.003325           0.077         3.242       1.131
   11      208.869 ||    0.001273           0.029         1.241       0.433
   12      336.583 ||    0.000628           0.014         0.612       0.214
   13      366.636 ||    0.005682           0.131         5.539       1.932
   14      410.328 ||    0.075871           1.750        73.963      25.799
   15      473.132 ||    0.015518           0.358        15.128       5.277
   16      521.117 ||    0.008046           0.186         7.843       2.736
   17      624.035 ||    0.000955           0.022         0.931       0.325
   18      631.164 ||    0.014675           0.339        14.306       4.990
   19      800.129 ||    0.028895           0.667        28.168       9.825
   20      880.419 ||    0.056344           1.300        54.927      19.159
   21      922.245 ||    0.013107           0.302        12.778       4.457
   22      985.246 ||    0.017510           0.404        17.070       5.954
   23     1018.989 ||    0.003436           0.079         3.350       1.168
   24     1027.103 ||    0.000858           0.020         0.837       0.292
   25     1049.053 ||    0.000535           0.012         0.522       0.182
   26     1184.727 ||    0.008379           0.193         8.168       2.849
   27     1213.428 ||    0.074787           1.725        72.906      25.431
   28     1317.239 ||    0.222531           5.134       216.934      75.670
   29     1363.440 ||    0.074131           1.710        72.266      25.208
   30     1394.255 ||    0.022485           0.519        21.919       7.646
   31     1413.693 ||    0.033563           0.774        32.719      11.413
   32     1457.101 ||    0.011916           0.275        11.616       4.052
   33     1467.520 ||    0.012776           0.295        12.455       4.344
   34     1469.086 ||    0.001854           0.043         1.807       0.630
   35     1480.341 ||    0.008297           0.191         8.088       2.821
   36     1682.508 ||    0.233060           5.377       227.199      79.250
   37     1734.307 ||    0.209831           4.841       204.554      71.351
   38     3050.850 ||    0.019696           0.454        19.201       6.698
   39     3058.447 ||    0.005056           0.117         4.929       1.719
   40     3129.078 ||    0.008087           0.187         7.883       2.750
   41     3143.624 ||    0.009304           0.215         9.070       3.164
   42     3186.294 ||    0.006736           0.155         6.566       2.290
   43     3194.387 ||    0.009503           0.219         9.264       3.232
   44     3229.098 ||    0.005842           0.135         5.696       1.987
   45     3792.287 ||    0.084573           1.951        82.446      28.758
 ----------------------------------------------------------------------------

 Total times  cpu:    31214.3s     wall:    31472.5s
