============================== echo of input deck ==============================
echo
start 2R1
title "Me,H,Me Ref 1"
charge 0

geometry
 zmatrix
  O
  C  1  R1
  C  2  R2  1  A1
  H  1  R5  2  A4  3  D0
  C  2  R6  3  A5  4  D180
  H  3  R7  2  A6  1  D180
  H  3  R8  2  A7  1  D0
  H  5  R9  2  A8  1  D1
  H  5  R10 2  A9  1  D2
  H  5  R11 2  A10 1  D3
  variables
    R1  1.329
    R2  1.363
    A1  124.5
    R3  1.440
    A2  119.5
    R4  1.249
    A3  123.5
    R5  0.994
    A4  105.4
    R6  1.485
    A5  122.5
    R7  1.078
    A6  120.0
    R8  1.099
    A7  117.6
    R9  1.100
    A8  110.0
    D1  180.0
    R10 1.100
    A9  110.0
    D2  60.00
    R11 1.100
    A10 110.0
    D3  -60.0
    R12 1.100
    A11 110.0
    D4  0.000
    R13 1.100
    A12 110.0
    D5  120.0
    R14 1.100
    A13 110.0
    D6  -120.
  constants
    D0  0.000
    D180 180.0
 end
end

basis spherical
 * library aug-cc-pVDZ
end

set lindep:n_dep 0

set cphf:maxsub 95
set cphf:maxiter 999
set int:acc_std 1d-16
set fock:densityscreen f

scf
 maxiter 99
 vectors input atomic
 thresh 1d-9
 tol2e 1d-15
end

mp2
 freeze atomic
 tight
end

driver
 clear
 maxiter 99
 tight
end

set "mp2:aotol2e fock" 1d-15
set mp2:aotol2e 1d-15
set mp2:backtol 1d-15

task mp2 optimize
task mp2 frequencies

================================================================================

         Total SCF energy =   -191.960686295555
          Total MP2 energy          -192.592527666132
@ Step       Energy      Delta E   Gmax     Grms     Xrms     Xmax   Walltime
@ ---- ---------------- -------- -------- -------- -------- -------- --------
@    0    -192.59252767  0.0D+00  0.04353  0.01073  0.00000  0.00000     43.1
         Total SCF energy =   -191.963982505370
          Total MP2 energy          -192.595995029787
         Total SCF energy =   -191.964317274098
          Total MP2 energy          -192.596248583646
@    1    -192.59624858 -3.7D-03  0.00872  0.00296  0.05953  0.16646    100.7
         Total SCF energy =   -191.964438845234
          Total MP2 energy          -192.596119432401
         Total SCF energy =   -191.964790807658
          Total MP2 energy          -192.596579407502
@    2    -192.59657941 -3.3D-04  0.00300  0.00109  0.01723  0.04345    157.0
         Total SCF energy =   -191.964824454341
          Total MP2 energy          -192.596670048781
         Total SCF energy =   -191.964846078138
          Total MP2 energy          -192.596677024348
@    3    -192.59667702 -9.8D-05  0.00101  0.00033  0.00834  0.02067    212.5
         Total SCF energy =   -191.964791332933
          Total MP2 energy          -192.596686459847
         Total SCF energy =   -191.964805007327
          Total MP2 energy          -192.596687080095
@    4    -192.59668708 -1.0D-05  0.00055  0.00018  0.00268  0.00713    264.1
         Total SCF energy =   -191.964756931964
          Total MP2 energy          -192.596688357775
         Total SCF energy =   -191.964777797815
          Total MP2 energy          -192.596689365764
@    5    -192.59668937 -2.3D-06  0.00014  0.00005  0.00135  0.00355    313.7
         Total SCF energy =   -191.964771812544
          Total MP2 energy          -192.596689685534
         Total SCF energy =   -191.964771812544
          Total MP2 energy          -192.596689685534
@    6    -192.59668969 -3.2D-07  0.00007  0.00002  0.00075  0.00295    353.1
         Total SCF energy =   -191.964771681352
          Total MP2 energy          -192.596689711806
         Total SCF energy =   -191.964771681352
          Total MP2 energy          -192.596689711806
@    7    -192.59668971 -2.6D-08  0.00003  0.00001  0.00018  0.00059    392.0
         Total SCF energy =   -191.964775551626

 Vector   23  Occ=0.000000D+00  E= 1.143502D-01  Symmetry=a'

 Vector   24  Occ=0.000000D+00  E= 1.171880D-01  Symmetry=a"

 Vector   25  Occ=0.000000D+00  E= 1.418979D-01  Symmetry=a"

 Vector   26  Occ=0.000000D+00  E= 1.448093D-01  Symmetry=a'

 Vector   27  Occ=0.000000D+00  E= 1.530179D-01  Symmetry=a'

 Vector   28  Occ=0.000000D+00  E= 1.588472D-01  Symmetry=a'

 Vector   29  Occ=0.000000D+00  E= 1.709033D-01  Symmetry=a'

 Vector   30  Occ=0.000000D+00  E= 1.760118D-01  Symmetry=a"

 Vector   31  Occ=0.000000D+00  E= 1.864853D-01  Symmetry=a'

 Vector   32  Occ=0.000000D+00  E= 1.881040D-01  Symmetry=a'

 Vector   33  Occ=0.000000D+00  E= 2.002999D-01  Symmetry=a"

 Vector   34  Occ=0.000000D+00  E= 2.122284D-01  Symmetry=a'

 Vector   35  Occ=0.000000D+00  E= 2.335653D-01  Symmetry=a'

 Vector   36  Occ=0.000000D+00  E= 2.508617D-01  Symmetry=a'

 Vector   37  Occ=0.000000D+00  E= 2.869641D-01  Symmetry=a"

 Vector   38  Occ=0.000000D+00  E= 2.886741D-01  Symmetry=a'

 Vector   39  Occ=0.000000D+00  E= 3.028718D-01  Symmetry=a"

 Vector   40  Occ=0.000000D+00  E= 3.122721D-01  Symmetry=a'

 Vector   41  Occ=0.000000D+00  E= 3.228533D-01  Symmetry=a'

 Vector   42  Occ=0.000000D+00  E= 3.450283D-01  Symmetry=a'

 Vector   43  Occ=0.000000D+00  E= 3.491184D-01  Symmetry=a"

 Vector   44  Occ=0.000000D+00  E= 3.751812D-01  Symmetry=a'

 Vector   45  Occ=0.000000D+00  E= 4.101107D-01  Symmetry=a'

 Vector   46  Occ=0.000000D+00  E= 4.137616D-01  Symmetry=a'

 Vector   47  Occ=0.000000D+00  E= 4.190848D-01  Symmetry=a"

 Vector   48  Occ=0.000000D+00  E= 4.350801D-01  Symmetry=a'

 Vector   49  Occ=0.000000D+00  E= 4.494322D-01  Symmetry=a'

 Vector   50  Occ=0.000000D+00  E= 4.523071D-01  Symmetry=a"

 Vector   51  Occ=0.000000D+00  E= 4.661698D-01  Symmetry=a'

 Vector   52  Occ=0.000000D+00  E= 4.826863D-01  Symmetry=a"

 Vector   53  Occ=0.000000D+00  E= 5.093955D-01  Symmetry=a'

          Total MP2 energy          -192.596689714753
         Total SCF energy =   -191.964775551626
          Total MP2 energy          -192.596689714753
@    8    -192.59668971 -2.9D-09  0.00001  0.00000  0.00004  0.00012    430.5
         Total SCF energy =   -191.964774795648

 Vector    5  Occ=2.000000D+00  E=-1.399976D+00  Symmetry=a'

 Vector    6  Occ=2.000000D+00  E=-1.051451D+00  Symmetry=a'

 Vector    7  Occ=2.000000D+00  E=-9.456270D-01  Symmetry=a'

 Vector    8  Occ=2.000000D+00  E=-7.887446D-01  Symmetry=a'

 Vector    9  Occ=2.000000D+00  E=-6.783952D-01  Symmetry=a'

 Vector   10  Occ=2.000000D+00  E=-6.387364D-01  Symmetry=a'

 Vector   11  Occ=2.000000D+00  E=-6.032445D-01  Symmetry=a"

 Vector   12  Occ=2.000000D+00  E=-5.507294D-01  Symmetry=a'

 Vector   13  Occ=2.000000D+00  E=-5.391073D-01  Symmetry=a'

 Vector   14  Occ=2.000000D+00  E=-5.331734D-01  Symmetry=a"

 Vector   15  Occ=2.000000D+00  E=-5.213527D-01  Symmetry=a'

 Vector   16  Occ=2.000000D+00  E=-3.386014D-01  Symmetry=a"

 Vector   17  Occ=0.000000D+00  E= 3.479481D-02  Symmetry=a'

 Vector   18  Occ=0.000000D+00  E= 4.499811D-02  Symmetry=a'

 Vector   19  Occ=0.000000D+00  E= 5.105694D-02  Symmetry=a'

 Vector   20  Occ=0.000000D+00  E= 6.183083D-02  Symmetry=a"

 Vector   21  Occ=0.000000D+00  E= 6.797656D-02  Symmetry=a'

 Vector   22  Occ=0.000000D+00  E= 7.472499D-02  Symmetry=a'

 Vector   23  Occ=0.000000D+00  E= 1.143503D-01  Symmetry=a'

 Vector   24  Occ=0.000000D+00  E= 1.171881D-01  Symmetry=a"

 Vector   25  Occ=0.000000D+00  E= 1.418979D-01  Symmetry=a"

 Vector   26  Occ=0.000000D+00  E= 1.448094D-01  Symmetry=a'

 Vector   27  Occ=0.000000D+00  E= 1.530179D-01  Symmetry=a'

 Vector   28  Occ=0.000000D+00  E= 1.588468D-01  Symmetry=a'

 Vector   29  Occ=0.000000D+00  E= 1.709033D-01  Symmetry=a'

 Vector   30  Occ=0.000000D+00  E= 1.760117D-01  Symmetry=a"

 Vector   31  Occ=0.000000D+00  E= 1.864856D-01  Symmetry=a'

 Vector   32  Occ=0.000000D+00  E= 1.881041D-01  Symmetry=a'

 Vector   33  Occ=0.000000D+00  E= 2.002996D-01  Symmetry=a"

 Vector   34  Occ=0.000000D+00  E= 2.122281D-01  Symmetry=a'

 Vector   35  Occ=0.000000D+00  E= 2.335648D-01  Symmetry=a'

 Vector   36  Occ=0.000000D+00  E= 2.508612D-01  Symmetry=a'

 Vector   37  Occ=0.000000D+00  E= 2.869638D-01  Symmetry=a"

 Vector   38  Occ=0.000000D+00  E= 2.886736D-01  Symmetry=a'

 Vector   39  Occ=0.000000D+00  E= 3.028720D-01  Symmetry=a"

 Vector   40  Occ=0.000000D+00  E= 3.122719D-01  Symmetry=a'

 Vector   41  Occ=0.000000D+00  E= 3.228529D-01  Symmetry=a'

 Vector   42  Occ=0.000000D+00  E= 3.450281D-01  Symmetry=a'

 Vector   43  Occ=0.000000D+00  E= 3.491180D-01  Symmetry=a"

 Vector   44  Occ=0.000000D+00  E= 3.751803D-01  Symmetry=a'

 Vector   45  Occ=0.000000D+00  E= 4.101103D-01  Symmetry=a'

 Vector   46  Occ=0.000000D+00  E= 4.137613D-01  Symmetry=a'

 Vector   47  Occ=0.000000D+00  E= 4.190846D-01  Symmetry=a"

 Vector   48  Occ=0.000000D+00  E= 4.350803D-01  Symmetry=a'

 Vector   49  Occ=0.000000D+00  E= 4.494321D-01  Symmetry=a'

 Vector   50  Occ=0.000000D+00  E= 4.523063D-01  Symmetry=a"

 Vector   51  Occ=0.000000D+00  E= 4.661689D-01  Symmetry=a'

 Vector   52  Occ=0.000000D+00  E= 4.826860D-01  Symmetry=a"

 Vector   53  Occ=0.000000D+00  E= 5.093949D-01  Symmetry=a'

       Multipole analysis of the density wrt the origin
       ------------------------------------------------

     L   x y z        total         open         nuclear
     -   - - -        -----         ----         -------
     0   0 0 0     -0.000000      0.000000     32.000000

     1   1 0 0      0.175455      0.000000      0.354336
     1   0 1 0      0.165241      0.000000      0.106753
     1   0 0 1     -0.000000      0.000000      0.000000

     2   2 0 0    -19.804533      0.000000    103.800980
     2   1 1 0     -1.658229      0.000000      1.473353
     2   1 0 1      0.000000      0.000000      0.000000
     2   0 2 0    -15.541604      0.000000    126.353304
     2   0 1 1     -0.000000      0.000000      0.000000

          Total MP2 energy          -192.596689714962
         Total SCF energy =   -191.964774795648
          Total MP2 energy          -192.596689714962
@    9    -192.59668971 -2.1D-10  0.00000  0.00000  0.00001  0.00002    465.7
@    9    -192.59668971 -2.1D-10  0.00000  0.00000  0.00001  0.00002    465.7

 Output coordinates in angstroms (scale by  1.889725989 to convert to a.u.)

  No.       Tag          Charge          X              Y              Z
 ---- ---------------- ---------- -------------- -------------- --------------
    1 O                    8.0000    -1.26667009     0.46581417     0.00000000
    2 C                    6.0000     0.06084513     0.07965470     0.00000000
    3 C                    6.0000     1.09735024     0.94882723     0.00000000
    4 H                    1.0000    -1.30532664     1.43406054     0.00000000
    5 C                    6.0000     0.17364552    -1.41578917     0.00000000
    6 H                    1.0000     2.12006048     0.57315580     0.00000000
    7 H                    1.0000     0.94040222     2.03084134     0.00000000
    8 H                    1.0000     1.22772186    -1.72393161     0.00000000
    9 H                    1.0000    -0.32651810    -1.83015240    -0.88971361
   10 H                    1.0000    -0.32651810    -1.83015240     0.88971361

         Total SCF energy =   -191.964774795648
          Total MP2 energy          -192.596689714962
         Total SCF energy =   -191.964797660815
          Total MP2 energy          -192.596689522808
         Total SCF energy =   -191.964751516193
          Total MP2 energy          -192.596689522031
         Total SCF energy =   -191.964798977900
          Total MP2 energy          -192.596689401296
         Total SCF energy =   -191.964749957924
          Total MP2 energy          -192.596689398847
         Total SCF energy =   -191.964774765412
          Total MP2 energy          -192.596689698551
         Total SCF energy =   -191.964774765412
          Total MP2 energy          -192.596689698551
         Total SCF energy =   -191.964777830845
          Total MP2 energy          -192.596689359319
         Total SCF energy =   -191.964771034940
          Total MP2 energy          -192.596689358960
         Total SCF energy =   -191.964794005464
          Total MP2 energy          -192.596689356436
         Total SCF energy =   -191.964754799928
          Total MP2 energy          -192.596689351407
         Total SCF energy =   -191.964774685351
          Total MP2 energy          -192.596689631325
         Total SCF energy =   -191.964774685352
          Total MP2 energy          -192.596689631326
         Total SCF energy =   -191.964755548330
          Total MP2 energy          -192.596689328740
         Total SCF energy =   -191.964793246552
          Total MP2 energy          -192.596689331022
         Total SCF energy =   -191.964759140044
          Total MP2 energy          -192.596689348840
         Total SCF energy =   -191.964789691048
          Total MP2 energy          -192.596689349618
         Total SCF energy =   -191.964774735756
          Total MP2 energy          -192.596689675593
         Total SCF energy =   -191.964774735756
          Total MP2 energy          -192.596689675592
         Total SCF energy =   -191.964773130686
          Total MP2 energy          -192.596689687372
         Total SCF energy =   -191.964776383444
          Total MP2 energy          -192.596689686852
         Total SCF energy =   -191.964747412617
          Total MP2 energy          -192.596689455311
         Total SCF energy =   -191.964801657460
          Total MP2 energy          -192.596689458747
         Total SCF energy =   -191.964774785066
          Total MP2 energy          -192.596689711538
         Total SCF energy =   -191.964774785066
          Total MP2 energy          -192.596689711538
         Total SCF energy =   -191.964776357871
          Total MP2 energy          -192.596689410645
         Total SCF energy =   -191.964772595652
          Total MP2 energy          -192.596689411556
         Total SCF energy =   -191.964769859497
          Total MP2 energy          -192.596689456761
         Total SCF energy =   -191.964779170078
          Total MP2 energy          -192.596689461102
         Total SCF energy =   -191.964774507769
          Total MP2 energy          -192.596689440050
         Total SCF energy =   -191.964774507770
          Total MP2 energy          -192.596689440050
         Total SCF energy =   -191.964766396809
          Total MP2 energy          -192.596689546019
         Total SCF energy =   -191.964782855728
          Total MP2 energy          -192.596689546110
         Total SCF energy =   -191.964778185388
          Total MP2 energy          -192.596689670134
         Total SCF energy =   -191.964771306900
          Total MP2 energy          -192.596689670384
         Total SCF energy =   -191.964774782521
          Total MP2 energy          -192.596689705657
         Total SCF energy =   -191.964774782521
          Total MP2 energy          -192.596689705657
         Total SCF energy =   -191.964776192820
          Total MP2 energy          -192.596689686847
         Total SCF energy =   -191.964773331032
          Total MP2 energy          -192.596689686075
         Total SCF energy =   -191.964766099862
          Total MP2 energy          -192.596689534754
         Total SCF energy =   -191.964783131188
          Total MP2 energy          -192.596689534651
         Total SCF energy =   -191.964774782777
          Total MP2 energy          -192.596689705807
         Total SCF energy =   -191.964774782777
          Total MP2 energy          -192.596689705807
         Total SCF energy =   -191.964766771820
          Total MP2 energy          -192.596689549627
         Total SCF energy =   -191.964782488585
          Total MP2 energy          -192.596689549087
         Total SCF energy =   -191.964776567448
          Total MP2 energy          -192.596689678262
         Total SCF energy =   -191.964772939699
          Total MP2 energy          -192.596689677492
         Total SCF energy =   -191.964774768895
          Total MP2 energy          -192.596689692933
         Total SCF energy =   -191.964774768895
          Total MP2 energy          -192.596689692933
         Total SCF energy =   -191.964778129496
          Total MP2 energy          -192.596689661963
         Total SCF energy =   -191.964771348487
          Total MP2 energy          -192.596689661843
         Total SCF energy =   -191.964777847480
          Total MP2 energy          -192.596689669713
         Total SCF energy =   -191.964771644530
          Total MP2 energy          -192.596689669532
         Total SCF energy =   -191.964768521371
          Total MP2 energy          -192.596689593861
         Total SCF energy =   -191.964780825510
          Total MP2 energy          -192.596689593808
 Zero-Point correction to Energy  =   53.133 kcal/mol  (  0.084673 au)
 Thermal correction to Energy     =   56.192 kcal/mol  (  0.089548 au)
 Thermal correction to Enthalpy   =   56.784 kcal/mol  (  0.090492 au)
 Total Entropy                    =   68.701 cal/mol-K
   - Translational                =   38.079 cal/mol-K (mol. weight =  58.0419)
   - Rotational                   =   24.110 cal/mol-K (symmetry #  =        1)
   - Vibrational                  =    6.511 cal/mol-K
   - Translational                  =    2.979 cal/mol-K
   - Rotational                     =    2.979 cal/mol-K
   - Vibrational                    =   11.095 cal/mol-K
 P.Frequency       -0.00       -0.00       -0.00       -0.00       -0.00        0.00
 P.Frequency      186.77      403.51      435.60      471.61      487.52      719.56
 P.Frequency      805.86      865.63      968.92     1014.97     1057.42     1205.67
 P.Frequency     1348.80     1398.72     1451.78     1462.32     1481.28     1717.96
 P.Frequency     3070.25     3152.85     3188.83     3191.02     3304.07     3793.91

 Normal Eigenvalue ||           Projected Infra Red Intensities
  Mode   [cm**-1]  || [atomic units] [(debye/angs)**2] [(KM/mol)] [arbitrary]
 ------ ---------- || -------------- ----------------- ---------- -----------
    1       -0.000 ||    0.000149           0.003         0.145       0.068
    2       -0.000 ||    0.000023           0.001         0.022       0.011
    3       -0.000 ||    0.000025           0.001         0.024       0.011
    4       -0.000 ||    0.000092           0.002         0.090       0.042
    5       -0.000 ||    0.000211           0.005         0.206       0.097
    6        0.000 ||    0.000000           0.000         0.000       0.000
    7      186.772 ||    0.001782           0.041         1.737       0.816
    8      403.507 ||    0.001435           0.033         1.399       0.658
    9      435.604 ||    0.095508           2.203        93.106      43.760
   10      471.606 ||    0.017893           0.413        17.443       8.198
   11      487.518 ||    0.004641           0.107         4.525       2.127
   12      719.559 ||    0.000359           0.008         0.350       0.164
   13      805.856 ||    0.065389           1.509        63.745      29.960
   14      865.629 ||    0.011422           0.264        11.134       5.233
   15      968.918 ||    0.010860           0.251        10.587       4.976
   16     1014.968 ||    0.032491           0.750        31.674      14.887
   17     1057.424 ||    0.000192           0.004         0.187       0.088
   18     1205.667 ||    0.138926           3.205       135.432      63.654
   19     1348.804 ||    0.010979           0.253        10.703       5.031
   20     1398.718 ||    0.041811           0.965        40.760      19.157
   21     1451.776 ||    0.000695           0.016         0.677       0.318
   22     1462.317 ||    0.007630           0.176         7.438       3.496
   23     1481.281 ||    0.007290           0.168         7.106       3.340
   24     1717.958 ||    0.122147           2.818       119.075      55.966
   25     3070.254 ||    0.014727           0.340        14.357       6.748
   26     3152.846 ||    0.008790           0.203         8.569       4.027
   27     3188.830 ||    0.012619           0.291        12.302       5.782
   28     3191.021 ||    0.001960           0.045         1.911       0.898
   29     3304.073 ||    0.006594           0.152         6.429       3.021
   30     3793.905 ||    0.038115           0.879        37.156      17.464
 ----------------------------------------------------------------------------

 Total times  cpu:     2651.1s     wall:     2686.6s
