 Gaussian 16, Revision A.03,
 Gaussian 16:  ES64L-G16RevA.03 25-Dec-2016

 -------------------------------------------------------
 # MP2/6-31G** Opt=(Recalc=50) Freq=(vibrot, anharmonic)
 -------------------------------------------------------

 ------
 H,Me,H
 ------
 Symbolic Z-matrix:
 Charge =  0 Multiplicity = 1

 SCF Done:  E(RHF) =  -304.675617312     A.U. after   14 cycles
 E2 =    -0.9035411275D+00 EUMP2 =    -0.30557915843995D+03
 E2 =    -0.9035411275D+00 EUMP2 =    -0.30557915843995D+03
 SCF Done:  E(RHF) =  -304.677089163     A.U. after   13 cycles
 E2 =    -0.9057005236D+00 EUMP2 =    -0.30558278968657D+03
 SCF Done:  E(RHF) =  -304.676650982     A.U. after   10 cycles
 E2 =    -0.9061738801D+00 EUMP2 =    -0.30558282486223D+03
 SCF Done:  E(RHF) =  -304.676598295     A.U. after    9 cycles
 E2 =    -0.9062273210D+00 EUMP2 =    -0.30558282561626D+03
 Optimization completed.
    -- Stationary point found.
 Normal termination of Gaussian 16 at Tue Oct 27 13:17:03 2020.

 ----------------------------------------------------------------------
 #N Geom=AllCheck Guess=TCheck SCRF=Check GenChk RMP2(FC)/6-31G(d,p) Fr
 eq
 ----------------------------------------------------------------------

 Structure from the checkpoint file:  "3.chk"
 ------
 H,Me,H
 ------
 Charge =  0 Multiplicity = 1

                         Standard orientation:
 ---------------------------------------------------------------------
 Center     Atomic      Atomic             Coordinates (Angstroms)
 Number     Number       Type             X           Y           Z
 ---------------------------------------------------------------------
      1          6           0       -0.108278   -1.183606    0.000000
      2          6           0        0.627108   -0.032585    0.000000
      3          8           0       -1.439387   -1.245439   -0.000000
      4          6           0       -0.081970    1.227833   -0.000000
      5          8           0       -1.325722    1.338274    0.000000
      6          1           0        0.359348   -2.162611    0.000000
      7          6           0        2.130108   -0.051104    0.000000
      8          1           0       -1.748499   -0.302322    0.000000
      9          1           0        0.530412    2.143193   -0.000001
     10          1           0        2.499837   -1.075549   -0.000000
     11          1           0        2.538983    0.445688    0.880422
     12          1           0        2.538983    0.445688   -0.880422
 ---------------------------------------------------------------------

 SCF Done:  E(RHF) =  -304.676598295     A.U. after    1 cycles
 E2 =    -0.9062273221D+00 EUMP2 =    -0.30558282561731D+03
 E2 =    -0.9062273221D+00 EUMP2 =    -0.30558282561731D+03
 SCF Done:  E(RHF) =  -304.676597895     A.U. after    8 cycles
 E2 =    -0.9062276344D+00 EUMP2 =    -0.30558282552978D+03
 E2 =    -0.9062276344D+00 EUMP2 =    -0.30558282552978D+03
 SCF Done:  E(RHF) =  -304.676597895     A.U. after    8 cycles
 E2 =    -0.9062276344D+00 EUMP2 =    -0.30558282552977D+03
 E2 =    -0.9062276344D+00 EUMP2 =    -0.30558282552977D+03
 SCF Done:  E(RHF) =  -304.676597495     A.U. after    9 cycles
 E2 =    -0.9062277498D+00 EUMP2 =    -0.30558282524477D+03
 E2 =    -0.9062277498D+00 EUMP2 =    -0.30558282524477D+03
 SCF Done:  E(RHF) =  -304.676597495     A.U. after    9 cycles
 E2 =    -0.9062277497D+00 EUMP2 =    -0.30558282524460D+03
 E2 =    -0.9062277497D+00 EUMP2 =    -0.30558282524460D+03
 SCF Done:  E(RHF) =  -304.676634560     A.U. after    9 cycles
 E2 =    -0.9061904243D+00 EUMP2 =    -0.30558282498444D+03
 E2 =    -0.9061904243D+00 EUMP2 =    -0.30558282498444D+03
 E2 =    -0.9062645241D+00 EUMP2 =    -0.30558282514745D+03
 E2 =    -0.9062645241D+00 EUMP2 =    -0.30558282514745D+03
 E2 =    -0.9062276215D+00 EUMP2 =    -0.30558282501346D+03
 SCF Done:  E(RHF) =  -304.676426381     A.U. after    9 cycles
 E2 =    -0.9063341458D+00 EUMP2 =    -0.30558276052682D+03
 E2 =    -0.9063341458D+00 EUMP2 =    -0.30558276052682D+03
 SCF Done:  E(RHF) =  -304.676636888     A.U. after    9 cycles
 E2 =    -0.9061221162D+00 EUMP2 =    -0.30558275900423D+03
 E2 =    -0.9061221162D+00 EUMP2 =    -0.30558275900423D+03
 SCF Done:  E(RHF) =  -304.676529443     A.U. after    8 cycles
 E2 =    -0.9062267932D+00 EUMP2 =    -0.30558275623596D+03
 E2 =    -0.9062267932D+00 EUMP2 =    -0.30558275623596D+03
 SCF Done:  E(RHF) =  -304.676529443     A.U. after    8 cycles
 E2 =    -0.9062267932D+00 EUMP2 =    -0.30558275623599D+03
 E2 =    -0.9062267932D+00 EUMP2 =    -0.30558275623599D+03
 SCF Done:  E(RHF) =  -304.676515847     A.U. after   10 cycles
 E2 =    -0.9062403649D+00 EUMP2 =    -0.30558275621226D+03
 E2 =    -0.9062403649D+00 EUMP2 =    -0.30558275621226D+03
 SCF Done:  E(RHF) =  -304.676541040     A.U. after   10 cycles
 E2 =    -0.9062136079D+00 EUMP2 =    -0.30558275464819D+03
 E2 =    -0.9062136079D+00 EUMP2 =    -0.30558275464819D+03
 SCF Done:  E(RHF) =  -304.676325567     A.U. after   10 cycles
 E2 =    -0.9064303902D+00 EUMP2 =    -0.30558275595713D+03
 E2 =    -0.9064303902D+00 EUMP2 =    -0.30558275595713D+03
 SCF Done:  E(RHF) =  -304.676725550     A.U. after   10 cycles
 E2 =    -0.9060270371D+00 EUMP2 =    -0.30558275258746D+03
 E2 =    -0.9060270371D+00 EUMP2 =    -0.30558275258746D+03
 SCF Done:  E(RHF) =  -304.676938834     A.U. after   10 cycles
 E2 =    -0.9058079847D+00 EUMP2 =    -0.30558274681923D+03
 E2 =    -0.9058079847D+00 EUMP2 =    -0.30558274681923D+03
 SCF Done:  E(RHF) =  -304.676106810     A.U. after   10 cycles
 E2 =    -0.9066463053D+00 EUMP2 =    -0.30558275311548D+03
 E2 =    -0.9066463053D+00 EUMP2 =    -0.30558275311548D+03

 Alpha  occ. eigenvalues --  -20.60150 -20.56646 -11.34656 -11.33834 -11.24122
 Alpha  occ. eigenvalues --  -11.23700  -1.42118  -1.37467  -1.09588  -0.94227
 Alpha  occ. eigenvalues --   -0.89595  -0.81235  -0.68780  -0.66177  -0.63541
 Alpha  occ. eigenvalues --   -0.60651  -0.60462  -0.56868  -0.55723  -0.53633
 Alpha  occ. eigenvalues --   -0.52607  -0.42828  -0.34439
 Alpha virt. eigenvalues --    0.09197   0.22951   0.24098   0.26714   0.28558
 Alpha virt. eigenvalues --    0.30523   0.32692   0.34039   0.40572   0.43076
 Alpha virt. eigenvalues --    0.47700   0.56638   0.59638   0.70287   0.73145

 Mulliken charges:
               1
     1  C    0.193871
     2  C   -0.103798
     3  O   -0.518212
     4  C    0.266720
     5  O   -0.469572
     6  H    0.136302
     7  C   -0.374108
     8  H    0.380709
     9  H    0.103322
    10  H    0.124746
    11  H    0.130010
    12  H    0.130009
 Sum of Mulliken charges =  -0.00000

 Dipole moment (field-independent basis, Debye):
    X=              2.7225    Y=             -0.2777    Z=             -0.0000  Tot=              2.7367
 Quadrupole moment (field-independent basis, Debye-Ang):
   XX=            -37.2780   YY=            -36.1855   ZZ=            -36.2244
   XY=              0.4097   XZ=             -0.0000   YZ=             -0.0000

  Exact polarizability:  56.779   3.080  60.271  -0.000  -0.000  25.671
 Approx polarizability:  47.558   3.156  50.076  -0.000  -0.000  26.262

                      1                      2                      3
                      A                      A                      A
 Frequencies --    110.1267               231.8131               282.9493
 Red. masses --      1.0509                 2.7384                 6.9087
 Frc consts  --      0.0075                 0.0867                 0.3259
 IR Inten    --      0.0005                 1.7228                 4.7134

                      4                      5                      6
                      A                      A                      A
 Frequencies --    294.7849               325.5062               379.6986
 Red. masses --      3.1212                 2.7380                 2.4458
 Frc consts  --      0.1598                 0.1709                 0.2078
 IR Inten    --      3.0108                 1.4745                 1.5301

                      7                      8                      9
                      A                      A                      A
 Frequencies --    526.3080               647.9862               874.3383
 Red. masses --      7.1841                 4.6002                 1.4329
 Frc consts  --      1.1725                 1.1380                 0.6454
 IR Inten    --     16.6560                 1.6631                62.4312

                     10                     11                     12
                      A                      A                      A
 Frequencies --    961.6656               967.7458              1038.4773
 Red. masses --      3.9300                 1.1967                 1.4598
 Frc consts  --      2.1414                 0.6603                 0.9275
 IR Inten    --     53.9097                53.8331                11.1065

                     13                     14                     15
                      A                      A                      A
 Frequencies --   1040.3877              1099.1013              1255.4851
 Red. masses --      1.3927                 1.4000                 3.4981
 Frc consts  --      0.8882                 0.9964                 3.2487
 IR Inten    --      8.0321                 1.9847                43.8114

                     16                     17                     18
                      A                      A                      A
 Frequencies --   1298.3409              1416.2149              1452.4656
 Red. masses --      1.6523                 1.6134                 1.4557
 Frc consts  --      1.6410                 1.9066                 1.8093
 IR Inten    --    181.7604                 4.4741                62.6069

                     19                     20                     21
                      A                      A                      A
 Frequencies --   1465.6714              1479.9479              1538.6088
 Red. masses --      1.9560                 1.3986                 1.0437
 Frc consts  --      2.4757                 1.8049                 1.4558
 IR Inten    --     16.2656                25.9344                 5.3409

                     22                     23                     24
                      A                      A                      A
 Frequencies --   1564.9057              1674.7606              1750.6827
 Red. masses --      1.0634                 3.1556                 5.4386
 Frc consts  --      1.5343                 5.2148                 9.8209
 IR Inten    --     16.3874               215.6463               160.9529

                     25                     26                     27
                      A                      A                      A
 Frequencies --   3060.7785              3121.4145              3203.7918
 Red. masses --      1.0874                 1.0364                 1.1030
 Frc consts  --      6.0021                 5.9495                 6.6704
 IR Inten    --     97.4506                28.7496                18.0952

                     28                     29                     30
                      A                      A                      A
 Frequencies --   3222.4138              3248.7531              3345.1140
 Red. masses --      1.1018                 1.0914                 1.0697
 Frc consts  --      6.7408                 6.7869                 7.0521
 IR Inten    --     10.9422                43.4476               119.0363

 - Thermochemistry -
 -------------------
 Temperature   298.150 Kelvin.  Pressure   1.00000 Atm.
 Atom     1 has atomic number  6 and mass  12.00000

 Molecular mass:    86.03678 amu.
 Principal axes and moments of inertia in atomic units:
                           1         2         3
     Eigenvalues --   360.53154 515.94064 865.31320
           X            0.99995   0.00966  -0.00000
           Y           -0.00966   0.99995  -0.00000
           Z            0.00000   0.00000   1.00000
 This molecule is an asymmetric top.
 Rotational symmetry number  1.
 Rotational temperatures (Kelvin)      0.24024     0.16788     0.10010
 Rotational constants (GHZ):           5.00578     3.49796     2.08565
 Zero-point vibrational energy     256480.8 (Joules/Mol)
                                   61.30038 (Kcal/Mol)
 Warning -- explicit consideration of   7 degrees of freedom as
           vibrations may cause significant error
 Vibrational temperatures:    158.45   333.53   407.10   424.13   468.33
          (Kelvin)            546.30   757.24   932.31  1257.98  1383.62
                             1392.37  1494.14  1496.89  1581.36  1806.36
                             1868.02  2037.62  2089.77  2108.77  2129.31
                             2213.71  2251.55  2409.61  2518.84  4403.78
                             4491.02  4609.54  4636.33  4674.23  4812.87

 Zero-point correction=                           0.097688 (Hartree/Particle)
 Thermal correction to Energy=                    0.103970
 Thermal correction to Enthalpy=                  0.104914
 Thermal correction to Gibbs Free Energy=         0.067867
 Sum of electronic and zero-point Energies=           -305.485137
 Sum of electronic and thermal Energies=              -305.478856
 Sum of electronic and thermal Enthalpies=            -305.477912
 Sum of electronic and thermal Free Energies=         -305.514959

                     E (Thermal)             CV                S
                      KCal/Mol        Cal/Mol-Kelvin    Cal/Mol-Kelvin
 Total                   65.242             21.539             77.973
 Electronic               0.000              0.000              0.000
 Translational            0.889              2.981             39.270
 Rotational               0.889              2.981             26.579
 Vibrational             63.465             15.577             12.125
 Vibration     1          0.606              1.941              3.267
 Vibration     2          0.653              1.792              1.865
 Vibration     3          0.682              1.705              1.516
 Vibration     4          0.689              1.683              1.446
 Vibration     5          0.710              1.624              1.282
 Vibration     6          0.750              1.513              1.040
 Vibration     7          0.881              1.192              0.596

 Error termination via Lnk1e in /sw/contrib/gaussian/g16/A03/g16/l717.exe at Tue Oct 27 14:57:41 2020.
