============================== echo of input deck ==============================
echo
start 3R1
title "3 Ref Closed"
memory stack 17500 mb heap 1000 mb global 4500 mb noverify
charge 0

geometry noautoz noautosym
O       -1.2755576000      1.4284096800      0.1043758500
C       -1.1931925000      0.0935859200      0.1011008100
C       -0.0192707600     -0.6203514400     -0.0003011600
H        0.9238878488     -0.0852018062     -0.0459540046
H       -0.4758440957      2.0246193886      0.0418071999
H       -2.1667512800     -0.4013667400      0.1884443000
C        0.0008514900     -2.1318743700      0.0024413100
H        0.9725969558     -2.6500170534      0.0454189262
H       -0.4519729114     -2.3520078889     -0.9764497882
H       -0.6492562894     -2.5692048673      0.7774966408
end

set lindep:n_dep 0

set cphf:maxsub 95
set cphf:maxiter 999
set int:acc_std 1d-16
set fock:densityscreen f

scf
 maxiter 99
 vectors input atomic
 thresh 1d-9
 tol2e 1d-15
end

mp2
 freeze atomic
 tight
end

driver
 clear
 maxiter 999
 tight
end

set "mp2:aotol2e fock" 1d-15
set mp2:aotol2e 1d-15
set mp2:backtol 1d-15

basis spherical
 * library aug-cc-pVDZ
end

task mp2 optimize
task mp2 frequencies

================================================================================

         Total SCF energy =   -191.939085163259
          Total MP2 energy          -192.572981624234
@ Step       Energy      Delta E   Gmax     Grms     Xrms     Xmax   Walltime
@ ---- ---------------- -------- -------- -------- -------- -------- --------
@    0    -192.57298162  0.0D+00  0.05822  0.01836  0.00000  0.00000     12.1
         Total SCF energy =   -191.939469584864
          Total MP2 energy          -192.577410512779
         Total SCF energy =   -191.947038288979
          Total MP2 energy          -192.581961480500
@    1    -192.58196148 -9.0D-03  0.03143  0.01035  0.05041  0.17247     28.2
         Total SCF energy =   -191.952868951851
          Total MP2 energy          -192.584268131018
         Total SCF energy =   -191.952418698374
          Total MP2 energy          -192.584691430326
@    2    -192.58469143 -2.7D-03  0.00905  0.00390  0.02393  0.06014     43.5
         Total SCF energy =   -191.952815521338
          Total MP2 energy          -192.585501629659
         Total SCF energy =   -191.952764202473
          Total MP2 energy          -192.585506074975
@    3    -192.58550607 -8.1D-04  0.00727  0.00221  0.02546  0.06588     57.9
         Total SCF energy =   -191.953331895351
          Total MP2 energy          -192.585812568251
         Total SCF energy =   -191.953399776187
          Total MP2 energy          -192.585826530947
@    4    -192.58582653 -3.2D-04  0.00247  0.00110  0.01822  0.04925     72.8
         Total SCF energy =   -191.953829450049
          Total MP2 energy          -192.585965466760
         Total SCF energy =   -191.954251869977
          Total MP2 energy          -192.586034867316
@    5    -192.58603487 -2.1D-04  0.00412  0.00162  0.01934  0.04131     87.7
         Total SCF energy =   -191.954110414924
          Total MP2 energy          -192.586150598788
         Total SCF energy =   -191.953981259068
          Total MP2 energy          -192.586164039785
@    6    -192.58616404 -1.3D-04  0.00222  0.00091  0.01784  0.03315    102.6
         Total SCF energy =   -191.954084304174
          Total MP2 energy          -192.586218159626
         Total SCF energy =   -191.954105156998
          Total MP2 energy          -192.586223144766
@    7    -192.58622314 -5.9D-05  0.00200  0.00063  0.00910  0.01870    117.2
         Total SCF energy =   -191.954108673596
          Total MP2 energy          -192.586254589371
         Total SCF energy =   -191.954057350328
          Total MP2 energy          -192.586288018028
@    8    -192.58628802 -6.5D-05  0.00162  0.00080  0.01363  0.03656    132.1
         Total SCF energy =   -191.954060961270
          Total MP2 energy          -192.586324650917
         Total SCF energy =   -191.954015816000
          Total MP2 energy          -192.586349218067
@    9    -192.58634922 -6.1D-05  0.00268  0.00110  0.01482  0.04494    146.5
         Total SCF energy =   -191.954096529125
          Total MP2 energy          -192.586430143929
         Total SCF energy =   -191.954178509772
          Total MP2 energy          -192.586613417837
@   10    -192.58661342 -2.6D-04  0.00383  0.00172  0.04773  0.12958    161.2
         Total SCF energy =   -191.954536814701
          Total MP2 energy          -192.586981396603
         Total SCF energy =   -191.952970655174
          Total MP2 energy          -192.586305895975
@   11    -192.58630590  3.1D-04  0.01910  0.00702  0.15525  0.39696    176.4
         Total SCF energy =   -191.954833249140
          Total MP2 energy          -192.587255576463
         Total SCF energy =   -191.955396087680
          Total MP2 energy          -192.587405118903
@   12    -192.58740512 -1.1D-03  0.00917  0.00319  0.04484  0.12645    191.5
         Total SCF energy =   -191.955657948870
          Total MP2 energy          -192.587791320888
         Total SCF energy =   -191.955631819800
          Total MP2 energy          -192.587805698529
@   13    -192.58780570 -4.0D-04  0.00244  0.00101  0.02007  0.05718    206.1
         Total SCF energy =   -191.956148238860
          Total MP2 energy          -192.588214851008
         Total SCF energy =   -191.955852857710
          Total MP2 energy          -192.588264964827
@   14    -192.58826496 -4.6D-04  0.00565  0.00315  0.11362  0.26178    221.4
         Total SCF energy =   -191.956595813226
          Total MP2 energy          -192.588542261543
         Total SCF energy =   -191.956595813226
          Total MP2 energy          -192.588542261543
@   15    -192.58854226 -2.8D-04  0.00217  0.00107  0.02356  0.06116    231.5
         Total SCF energy =   -191.956542598154
          Total MP2 energy          -192.588752618564
         Total SCF energy =   -191.956212221356
          Total MP2 energy          -192.588777037984
@   16    -192.58877704 -2.3D-04  0.00456  0.00197  0.05849  0.15056    246.4
         Total SCF energy =   -191.956787883939
          Total MP2 energy          -192.588938383216
         Total SCF energy =   -191.956976639045
          Total MP2 energy          -192.588955120505
@   17    -192.58895512 -1.8D-04  0.00264  0.00100  0.01911  0.04310    260.9
         Total SCF energy =   -191.957022105455
          Total MP2 energy          -192.589046084168
         Total SCF energy =   -191.957005535388
          Total MP2 energy          -192.589046519714
@   18    -192.58904652 -9.1D-05  0.00280  0.00106  0.03219  0.08279    275.4
         Total SCF energy =   -191.957036474034
          Total MP2 energy          -192.589110388740
         Total SCF energy =   -191.957009680782
          Total MP2 energy          -192.589116148298
@   19    -192.58911615 -7.0D-05  0.00184  0.00087  0.02406  0.06134    289.9

 Vector   25  Occ=0.000000D+00  E= 1.365614D-01

 Vector   26  Occ=0.000000D+00  E= 1.369980D-01

 Vector   27  Occ=0.000000D+00  E= 1.511198D-01

 Vector   28  Occ=0.000000D+00  E= 1.554889D-01

 Vector   29  Occ=0.000000D+00  E= 1.664101D-01

 Vector   30  Occ=0.000000D+00  E= 1.747567D-01

 Vector   31  Occ=0.000000D+00  E= 1.790380D-01

 Vector   32  Occ=0.000000D+00  E= 1.846200D-01

 Vector   33  Occ=0.000000D+00  E= 2.078113D-01

 Vector   34  Occ=0.000000D+00  E= 2.219706D-01

 Vector   35  Occ=0.000000D+00  E= 2.378886D-01

 Vector   36  Occ=0.000000D+00  E= 2.628360D-01

 Vector   37  Occ=0.000000D+00  E= 2.687018D-01

 Vector   38  Occ=0.000000D+00  E= 2.875252D-01

 Vector   39  Occ=0.000000D+00  E= 3.017424D-01

 Vector   40  Occ=0.000000D+00  E= 3.121497D-01

 Vector   41  Occ=0.000000D+00  E= 3.231141D-01

 Vector   42  Occ=0.000000D+00  E= 3.453706D-01

 Vector   43  Occ=0.000000D+00  E= 3.490622D-01

 Vector   44  Occ=0.000000D+00  E= 3.779069D-01

 Vector   45  Occ=0.000000D+00  E= 3.921812D-01

 Vector   46  Occ=0.000000D+00  E= 4.065789D-01

 Vector   47  Occ=0.000000D+00  E= 4.094184D-01

 Vector   48  Occ=0.000000D+00  E= 4.407109D-01

 Vector   49  Occ=0.000000D+00  E= 4.428664D-01

 Vector   50  Occ=0.000000D+00  E= 4.507436D-01

 Vector   51  Occ=0.000000D+00  E= 4.634321D-01

 Vector   52  Occ=0.000000D+00  E= 4.667954D-01

 Vector   53  Occ=0.000000D+00  E= 4.781678D-01

 Vector   54  Occ=0.000000D+00  E= 5.207560D-01

 Vector    5  Occ=2.000000D+00  E=-1.394895D+00

 Vector    6  Occ=2.000000D+00  E=-1.056445D+00

 Vector    7  Occ=2.000000D+00  E=-9.216369D-01

 Vector    8  Occ=2.000000D+00  E=-8.069031D-01

 Vector    9  Occ=2.000000D+00  E=-6.811089D-01

 Vector   10  Occ=2.000000D+00  E=-6.389670D-01

 Vector   11  Occ=2.000000D+00  E=-5.787835D-01

 Vector   12  Occ=2.000000D+00  E=-5.610921D-01

 Vector   13  Occ=2.000000D+00  E=-5.538271D-01

 Vector   14  Occ=2.000000D+00  E=-5.259087D-01

 Vector   15  Occ=2.000000D+00  E=-5.100810D-01

 Vector   16  Occ=2.000000D+00  E=-3.330354D-01

 Vector   17  Occ=0.000000D+00  E= 3.509686D-02

 Vector   18  Occ=0.000000D+00  E= 4.370522D-02

 Vector   19  Occ=0.000000D+00  E= 5.007120D-02

 Vector   20  Occ=0.000000D+00  E= 5.894953D-02

 Vector   21  Occ=0.000000D+00  E= 6.962931D-02

 Vector   22  Occ=0.000000D+00  E= 7.569830D-02

 Vector   23  Occ=0.000000D+00  E= 1.118752D-01

 Vector   24  Occ=0.000000D+00  E= 1.204413D-01

 Vector   25  Occ=0.000000D+00  E= 1.365614D-01

 Vector   26  Occ=0.000000D+00  E= 1.369980D-01

 Vector   27  Occ=0.000000D+00  E= 1.511195D-01

 Vector   28  Occ=0.000000D+00  E= 1.554888D-01

 Vector   29  Occ=0.000000D+00  E= 1.664101D-01

 Vector   30  Occ=0.000000D+00  E= 1.747569D-01

 Vector   31  Occ=0.000000D+00  E= 1.790382D-01

 Vector   32  Occ=0.000000D+00  E= 1.846200D-01

 Vector   33  Occ=0.000000D+00  E= 2.078109D-01

 Vector   34  Occ=0.000000D+00  E= 2.219706D-01

 Vector   35  Occ=0.000000D+00  E= 2.378883D-01

 Vector   36  Occ=0.000000D+00  E= 2.628361D-01

 Vector   37  Occ=0.000000D+00  E= 2.687019D-01

 Vector   38  Occ=0.000000D+00  E= 2.875249D-01

 Vector   39  Occ=0.000000D+00  E= 3.017429D-01

 Vector   40  Occ=0.000000D+00  E= 3.121497D-01

 Vector   41  Occ=0.000000D+00  E= 3.231151D-01

 Vector   42  Occ=0.000000D+00  E= 3.453710D-01

 Vector   43  Occ=0.000000D+00  E= 3.490619D-01

 Vector   44  Occ=0.000000D+00  E= 3.779064D-01

 Vector   45  Occ=0.000000D+00  E= 3.921812D-01

 Vector   46  Occ=0.000000D+00  E= 4.065789D-01

 Vector   47  Occ=0.000000D+00  E= 4.094184D-01

 Vector   48  Occ=0.000000D+00  E= 4.407110D-01

 Vector   49  Occ=0.000000D+00  E= 4.428662D-01

 Vector   50  Occ=0.000000D+00  E= 4.507439D-01

 Vector   51  Occ=0.000000D+00  E= 4.634323D-01

 Vector   52  Occ=0.000000D+00  E= 4.667951D-01

 Vector   53  Occ=0.000000D+00  E= 4.781683D-01

 Vector   54  Occ=0.000000D+00  E= 5.207562D-01

       Multipole analysis of the density wrt the origin
       ------------------------------------------------

     L   x y z        total         open         nuclear
     -   - - -        -----         ----         -------
     0   0 0 0     -0.000000      0.000000     32.000000

     1   1 0 0      0.464251      0.000000     -0.450759
     1   0 1 0     -0.214414      0.000000      1.088657
     1   0 0 1     -0.174005      0.000000      1.867673

     2   2 0 0    -18.447499      0.000000     55.700851
     2   1 1 0      2.765438      0.000000    -74.783623
     2   1 0 1     -0.920314      0.000000    -16.741142
     2   0 2 0    -18.676223      0.000000    236.567841
     2   0 1 1     -1.174198      0.000000     20.300961

 Output coordinates in angstroms (scale by  1.889725989 to convert to a.u.)

  No.       Tag          Charge          X              Y              Z
 ---- ---------------- ---------- -------------- -------------- --------------
    1 O                    8.0000    -0.66461725     1.81256744     0.21807871
    2 C                    6.0000    -0.54583263     0.43860778     0.22587582
    3 C                    6.0000     0.52697373    -0.28099882    -0.16739633
    4 H                    1.0000     1.41561954     0.24694526    -0.53768812
    5 H                    1.0000     0.16172787     2.18789892    -0.12171980
    6 H                    1.0000    -1.45972993    -0.02757777     0.60370039
    7 C                    6.0000     0.56092666    -1.78716188    -0.12097369
    8 H                    1.0000     1.37350578    -2.15097227     0.52936024
    9 H                    1.0000     0.72373204    -2.21657285    -1.12330815
   10 H                    1.0000    -0.38885519    -2.18685096     0.26832107

         Total SCF energy =   -191.957424550715
          Total MP2 energy          -192.589298288367
         Total SCF energy =   -191.957436285290
          Total MP2 energy          -192.589298288132
         Total SCF energy =   -191.957408232415
          Total MP2 energy          -192.589298052741
         Total SCF energy =   -191.957452138201
          Total MP2 energy          -192.589298041634
         Total SCF energy =   -191.957450648272
          Total MP2 energy          -192.589298074651
         Total SCF energy =   -191.957409758626
          Total MP2 energy          -192.589298073944
         Total SCF energy =   -191.957438254030
          Total MP2 energy          -192.589298296492
         Total SCF energy =   -191.957422602185
          Total MP2 energy          -192.589298293496
         Total SCF energy =   -191.957423372678
          Total MP2 energy          -192.589298268892
         Total SCF energy =   -191.957437479620
          Total MP2 energy          -192.589298274952
         Total SCF energy =   -191.957425813795
          Total MP2 energy          -192.589298333572
         Total SCF energy =   -191.957435159654
          Total MP2 energy          -192.589298337351
         Total SCF energy =   -191.957433474667
          Total MP2 energy          -192.589298366099
         Total SCF energy =   -191.957427563426
          Total MP2 energy          -192.589298367887
         Total SCF energy =   -191.957406551226
          Total MP2 energy          -192.589298209549
         Total SCF energy =   -191.957454167896
          Total MP2 energy          -192.589298206620
         Total SCF energy =   -191.957422832400
          Total MP2 energy          -192.589298331034
         Total SCF energy =   -191.957438122154
          Total MP2 energy          -192.589298330638
         Total SCF energy =   -191.957440176342
          Total MP2 energy          -192.589298362070
         Total SCF energy =   -191.957420847302
          Total MP2 energy          -192.589298363061
         Total SCF energy =   -191.957438969572
          Total MP2 energy          -192.589298261075
         Total SCF energy =   -191.957421860080
          Total MP2 energy          -192.589298260819
         Total SCF energy =   -191.957434448317
          Total MP2 energy          -192.589298337667
         Total SCF energy =   -191.957426526372
          Total MP2 energy          -192.589298336364
         Total SCF energy =   -191.957426993755
          Total MP2 energy          -192.589298362967
         Total SCF energy =   -191.957434036875
          Total MP2 energy          -192.589298364611
         Total SCF energy =   -191.957430010465
          Total MP2 energy          -192.589298108677
         Total SCF energy =   -191.957430491827
          Total MP2 energy          -192.589298109720
         Total SCF energy =   -191.957424954963
          Total MP2 energy          -192.589298146547
         Total SCF energy =   -191.957435605009
          Total MP2 energy          -192.589298147675
         Total SCF energy =   -191.957430572598
          Total MP2 energy          -192.589298123482
         Total SCF energy =   -191.957429957210
          Total MP2 energy          -192.589298119706
         Total SCF energy =   -191.957425225519
          Total MP2 energy          -192.589298293164
         Total SCF energy =   -191.957435669058
          Total MP2 energy          -192.589298293076
         Total SCF energy =   -191.957433104202
          Total MP2 energy          -192.589298355712
         Total SCF energy =   -191.957427911086
          Total MP2 energy          -192.589298356849
         Total SCF energy =   -191.957426140414
          Total MP2 energy          -192.589298321427
         Total SCF energy =   -191.957434809584
          Total MP2 energy          -192.589298322185
         Total SCF energy =   -191.957429574236
          Total MP2 energy          -192.589298370690
         Total SCF energy =   -191.957431470468
          Total MP2 energy          -192.589298371165
         Total SCF energy =   -191.957433530093
          Total MP2 energy          -192.589298349841
         Total SCF energy =   -191.957427473493
          Total MP2 energy          -192.589298350537
         Total SCF energy =   -191.957436941740
          Total MP2 energy          -192.589298249485
         Total SCF energy =   -191.957423869832
          Total MP2 energy          -192.589298250694
         Total SCF energy =   -191.957437491155
          Total MP2 energy          -192.589298262809
         Total SCF energy =   -191.957423341629
          Total MP2 energy          -192.589298260033
         Total SCF energy =   -191.957433083502
          Total MP2 energy          -192.589298354319
         Total SCF energy =   -191.957427923515
          Total MP2 energy          -192.589298349931
         Total SCF energy =   -191.957427622855
          Total MP2 energy          -192.589298354512
         Total SCF energy =   -191.957433392624
          Total MP2 energy          -192.589298357291
 Zero-Point correction to Energy  =   53.216 kcal/mol  (  0.084806 au)
 Thermal correction to Energy     =   56.400 kcal/mol  (  0.089880 au)
 Thermal correction to Enthalpy   =   56.993 kcal/mol  (  0.090824 au)
 Total Entropy                    =   69.363 cal/mol-K
   - Translational                =   38.079 cal/mol-K (mol. weight =  58.0419)
   - Rotational                   =   23.859 cal/mol-K (symmetry #  =        1)
   - Vibrational                  =    7.425 cal/mol-K
   - Translational                  =    2.979 cal/mol-K
   - Rotational                     =    2.979 cal/mol-K
   - Vibrational                    =   11.010 cal/mol-K
 P.Frequency       -0.00       -0.00       -0.00       -0.00        0.00        0.00
 P.Frequency      203.92      264.57      292.09      423.74      535.28      777.92
 P.Frequency      926.73      950.66     1051.52     1107.87     1130.56     1249.07
 P.Frequency     1323.54     1379.12     1409.18     1466.07     1491.44     1720.38
 P.Frequency     3052.92     3129.93     3149.72     3176.94     3236.60     3793.35

 Normal Eigenvalue ||           Projected Infra Red Intensities
  Mode   [cm**-1]  || [atomic units] [(debye/angs)**2] [(KM/mol)] [arbitrary]
 ------ ---------- || -------------- ----------------- ---------- -----------
    1       -0.000 ||    0.000140           0.003         0.136       0.059
    2       -0.000 ||    0.000344           0.008         0.335       0.146
    3       -0.000 ||    0.001615           0.037         1.574       0.685
    4       -0.000 ||    0.000833           0.019         0.813       0.353
    5        0.000 ||    0.000980           0.023         0.955       0.415
    6        0.000 ||    0.000002           0.000         0.002       0.001
    7      203.916 ||    0.000112           0.003         0.110       0.048
    8      264.571 ||    0.017395           0.401        16.958       7.377
    9      292.093 ||    0.008449           0.195         8.237       3.583
   10      423.739 ||    0.065848           1.519        64.192      27.926
   11      535.278 ||    0.002257           0.052         2.200       0.957
   12      777.924 ||    0.009083           0.210         8.854       3.852
   13      926.727 ||    0.013511           0.312        13.172       5.730
   14      950.658 ||    0.063989           1.476        62.379      27.137
   15     1051.521 ||    0.000205           0.005         0.200       0.087
   16     1107.874 ||    0.126599           2.921       123.415      53.690
   17     1130.562 ||    0.082986           1.915        80.898      35.194
   18     1249.067 ||    0.019911           0.459        19.410       8.444
   19     1323.538 ||    0.010532           0.243        10.267       4.467
   20     1379.117 ||    0.013761           0.317        13.414       5.836
   21     1409.179 ||    0.009878           0.228         9.630       4.189
   22     1466.066 ||    0.005515           0.127         5.376       2.339
   23     1491.440 ||    0.009781           0.226         9.535       4.148
   24     1720.382 ||    0.094658           2.184        92.277      40.144
   25     3052.920 ||    0.036636           0.845        35.715      15.537
   26     3129.928 ||    0.018514           0.427        18.048       7.852
   27     3149.721 ||    0.016542           0.382        16.126       7.016
   28     3176.939 ||    0.024372           0.562        23.759      10.336
   29     3236.603 ||    0.009679           0.223         9.436       4.105
   30     3793.349 ||    0.043257           0.998        42.169      18.345
 ----------------------------------------------------------------------------

 Total times  cpu:      904.6s     wall:     1013.6s
