============================== echo of input deck ==============================
echo
start 3R2
title "3 Ref Open"
memory stack 17500 mb heap 1000 mb global 4500 mb noverify
charge 0

geometry noautoz noautosym
O       -1.2755576000      1.4284096800      0.1043758500
C       -1.1931925000      0.0935859200      0.1011008100
C       -0.0192707600     -0.6203514400     -0.0003011600
H        0.9238878488     -0.0852018062     -0.0459540046
H       -2.2020223536      1.7989234159      0.0468852115
H       -2.1667512800     -0.4013667400      0.1884443000
C        0.0008514900     -2.1318743700      0.0024413100
H        0.9725969558     -2.6500170534      0.0454189262
H       -0.4519729114     -2.3520078889     -0.9764497882
H       -0.6492562894     -2.5692048673      0.7774966408
end

set lindep:n_dep 0

set cphf:maxsub 95
set cphf:maxiter 999
set int:acc_std 1d-16
set fock:densityscreen f

scf
 maxiter 99
 vectors input atomic
 thresh 1d-9
 tol2e 1d-15
end

mp2
 freeze atomic
 tight
end

driver
 clear
 maxiter 999
 tight
end

set "mp2:aotol2e fock" 1d-15
set mp2:aotol2e 1d-15
set mp2:backtol 1d-15

basis spherical
 * library aug-cc-pVDZ
end

task mp2 optimize
task mp2 frequencies

================================================================================

         Total SCF energy =   -191.939764851947
          Total MP2 energy          -192.573737020585
@ Step       Energy      Delta E   Gmax     Grms     Xrms     Xmax   Walltime
@ ---- ---------------- -------- -------- -------- -------- -------- --------
@    0    -192.57373702  0.0D+00  0.05491  0.01668  0.00000  0.00000     12.1
         Total SCF energy =   -191.947743732263
          Total MP2 energy          -192.581604373060
         Total SCF energy =   -191.947743732263
          Total MP2 energy          -192.581604373060
@    1    -192.58160437 -7.9D-03  0.02254  0.00686  0.05060  0.11458     22.9
         Total SCF energy =   -191.951097884373
          Total MP2 energy          -192.582948141486
         Total SCF energy =   -191.951097884373
          Total MP2 energy          -192.582948141486
@    2    -192.58294814 -1.3D-03  0.01206  0.00435  0.02426  0.07345     33.1
         Total SCF energy =   -191.950878791147
          Total MP2 energy          -192.583368854294
         Total SCF energy =   -191.950878791147
          Total MP2 energy          -192.583368854294
@    3    -192.58336885 -4.2D-04  0.00518  0.00208  0.01153  0.03754     43.6
         Total SCF energy =   -191.951528684950
          Total MP2 energy          -192.583560062337
         Total SCF energy =   -191.951528684950
          Total MP2 energy          -192.583560062337
@    4    -192.58356006 -1.9D-04  0.00322  0.00099  0.01115  0.03089     53.9
         Total SCF energy =   -191.951762581201
          Total MP2 energy          -192.583684968074
         Total SCF energy =   -191.951913382845
          Total MP2 energy          -192.583735634678
@    5    -192.58373563 -1.8D-04  0.00506  0.00163  0.01876  0.05184     68.6
         Total SCF energy =   -191.952052583103
          Total MP2 energy          -192.583856688415
         Total SCF energy =   -191.952077001051
          Total MP2 energy          -192.583887287879
@    6    -192.58388729 -1.5D-04  0.00255  0.00117  0.02022  0.04564     83.4
         Total SCF energy =   -191.952051734302
          Total MP2 energy          -192.583952927106
         Total SCF energy =   -191.952010727267
          Total MP2 energy          -192.583960591783
@    7    -192.58396059 -7.3D-05  0.00180  0.00075  0.01116  0.02264     98.0
         Total SCF energy =   -191.951974866481
          Total MP2 energy          -192.584007453778
         Total SCF energy =   -191.951890165429
          Total MP2 energy          -192.584025727243
@    8    -192.58402573 -6.5D-05  0.00250  0.00089  0.01277  0.03000    112.4
         Total SCF energy =   -191.951984311349
          Total MP2 energy          -192.584072557407
         Total SCF energy =   -191.952053324470
          Total MP2 energy          -192.584094735739
@    9    -192.58409474 -6.9D-05  0.00200  0.00077  0.01657  0.04716    127.2
         Total SCF energy =   -191.952202538580
          Total MP2 energy          -192.584146484637
         Total SCF energy =   -191.952502551549
          Total MP2 energy          -192.584212551582
@   10    -192.58421255 -1.2D-04  0.00531  0.00189  0.02618  0.07687    141.9
         Total SCF energy =   -191.952572918178
          Total MP2 energy          -192.584394691629
         Total SCF energy =   -191.951787353875
          Total MP2 energy          -192.584595503644
@   11    -192.58459550 -3.8D-04  0.00727  0.00342  0.10357  0.28178    157.5
         Total SCF energy =   -191.952734585507
          Total MP2 energy          -192.584975894724
         Total SCF energy =   -191.952871975220
          Total MP2 energy          -192.584991547601
@   12    -192.58499155 -4.0D-04  0.00769  0.00222  0.02544  0.04736    172.1
         Total SCF energy =   -191.953135767229
          Total MP2 energy          -192.585503821607
         Total SCF energy =   -191.948879007015
          Total MP2 energy          -192.583850920470
@   13    -192.58385092  1.1D-03  0.02132  0.00925  0.18100  0.45411    187.3
         Total SCF energy =   -191.952593752528
          Total MP2 energy          -192.585686712316
         Total SCF energy =   -191.954088913791
          Total MP2 energy          -192.586097639584
@   14    -192.58609764 -2.2D-03  0.00813  0.00323  0.05229  0.12616    201.9
         Total SCF energy =   -191.954156378709
          Total MP2 energy          -192.586352765447
         Total SCF energy =   -191.954183802737
          Total MP2 energy          -192.586356643380
@   15    -192.58635664 -2.6D-04  0.00240  0.00104  0.01056  0.03394    215.9
         Total SCF energy =   -191.954561515393
          Total MP2 energy          -192.586540586499
         Total SCF energy =   -191.954762199354
          Total MP2 energy          -192.586615021016
@   16    -192.58661502 -2.6D-04  0.00578  0.00189  0.04597  0.12807    230.5
         Total SCF energy =   -191.954918724122
          Total MP2 energy          -192.586855062771
         Total SCF energy =   -191.954813610668
          Total MP2 energy          -192.586865268442
@   17    -192.58686527 -2.5D-04  0.00626  0.00217  0.05147  0.12398    245.2
         Total SCF energy =   -191.954842031059
          Total MP2 energy          -192.587043568922
         Total SCF energy =   -191.954773248988
          Total MP2 energy          -192.587060059125
@   18    -192.58706006 -1.9D-04  0.00319  0.00142  0.02450  0.06573    260.2
         Total SCF energy =   -191.955454098564
          Total MP2 energy          -192.587136653405
         Total SCF energy =   -191.955454098564
          Total MP2 energy          -192.587136653405
@   19    -192.58713665 -7.7D-05  0.00212  0.00075  0.00754  0.01884    270.5

 Vector   27  Occ=0.000000D+00  E= 1.489876D-01

 Vector   28  Occ=0.000000D+00  E= 1.676130D-01

 Vector   29  Occ=0.000000D+00  E= 1.736496D-01

 Vector   30  Occ=0.000000D+00  E= 1.796374D-01

 Vector   31  Occ=0.000000D+00  E= 1.859118D-01

 Vector   32  Occ=0.000000D+00  E= 1.885586D-01

 Vector   33  Occ=0.000000D+00  E= 2.093859D-01

 Vector   34  Occ=0.000000D+00  E= 2.183954D-01

 Vector   35  Occ=0.000000D+00  E= 2.367653D-01

 Vector   36  Occ=0.000000D+00  E= 2.520389D-01

 Vector   37  Occ=0.000000D+00  E= 2.625361D-01

 Vector   38  Occ=0.000000D+00  E= 2.820989D-01

 Vector   39  Occ=0.000000D+00  E= 3.022160D-01

 Vector   40  Occ=0.000000D+00  E= 3.108226D-01

 Vector   41  Occ=0.000000D+00  E= 3.215520D-01

 Vector   42  Occ=0.000000D+00  E= 3.560027D-01

 Vector   43  Occ=0.000000D+00  E= 3.586175D-01

 Vector   44  Occ=0.000000D+00  E= 3.782288D-01

 Vector   45  Occ=0.000000D+00  E= 3.914664D-01

 Vector   46  Occ=0.000000D+00  E= 4.097730D-01

 Vector   47  Occ=0.000000D+00  E= 4.175985D-01

 Vector   48  Occ=0.000000D+00  E= 4.444262D-01

 Vector   49  Occ=0.000000D+00  E= 4.490580D-01

 Vector   50  Occ=0.000000D+00  E= 4.558005D-01

 Vector   51  Occ=0.000000D+00  E= 4.655913D-01

 Vector   52  Occ=0.000000D+00  E= 4.695972D-01

 Vector   53  Occ=0.000000D+00  E= 4.865536D-01

 Vector   54  Occ=0.000000D+00  E= 4.965321D-01

 Vector   55  Occ=0.000000D+00  E= 5.196935D-01

 Vector    5  Occ=2.000000D+00  E=-1.390767D+00

 Vector    6  Occ=2.000000D+00  E=-1.054488D+00

 Vector    7  Occ=2.000000D+00  E=-9.215175D-01

 Vector    8  Occ=2.000000D+00  E=-7.664686D-01

 Vector    9  Occ=2.000000D+00  E=-7.241036D-01

 Vector   10  Occ=2.000000D+00  E=-6.286537D-01

 Vector   11  Occ=2.000000D+00  E=-5.751648D-01

 Vector   12  Occ=2.000000D+00  E=-5.504394D-01

 Vector   13  Occ=2.000000D+00  E=-5.423363D-01

 Vector   14  Occ=2.000000D+00  E=-5.348577D-01

 Vector   15  Occ=2.000000D+00  E=-5.013982D-01

 Vector   16  Occ=2.000000D+00  E=-3.280988D-01

 Vector   17  Occ=0.000000D+00  E= 3.332532D-02

 Vector   18  Occ=0.000000D+00  E= 4.299957D-02

 Vector   19  Occ=0.000000D+00  E= 5.177646D-02

 Vector   20  Occ=0.000000D+00  E= 6.124399D-02

 Vector   21  Occ=0.000000D+00  E= 6.791031D-02

 Vector   22  Occ=0.000000D+00  E= 7.818306D-02

 Vector   23  Occ=0.000000D+00  E= 1.093903D-01

 Vector   24  Occ=0.000000D+00  E= 1.230220D-01

 Vector   25  Occ=0.000000D+00  E= 1.282655D-01

 Vector   26  Occ=0.000000D+00  E= 1.420764D-01

 Vector   27  Occ=0.000000D+00  E= 1.489877D-01

 Vector   28  Occ=0.000000D+00  E= 1.676131D-01

 Vector   29  Occ=0.000000D+00  E= 1.736494D-01

 Vector   30  Occ=0.000000D+00  E= 1.796375D-01

 Vector   31  Occ=0.000000D+00  E= 1.859115D-01

 Vector   32  Occ=0.000000D+00  E= 1.885585D-01

 Vector   33  Occ=0.000000D+00  E= 2.093853D-01

 Vector   34  Occ=0.000000D+00  E= 2.183959D-01

 Vector   35  Occ=0.000000D+00  E= 2.367655D-01

 Vector   36  Occ=0.000000D+00  E= 2.520391D-01

 Vector   37  Occ=0.000000D+00  E= 2.625359D-01

 Vector   38  Occ=0.000000D+00  E= 2.820984D-01

 Vector   39  Occ=0.000000D+00  E= 3.022167D-01

 Vector   40  Occ=0.000000D+00  E= 3.108226D-01

 Vector   41  Occ=0.000000D+00  E= 3.215519D-01

 Vector   42  Occ=0.000000D+00  E= 3.560026D-01

 Vector   43  Occ=0.000000D+00  E= 3.586172D-01

 Vector   44  Occ=0.000000D+00  E= 3.782288D-01

 Vector   45  Occ=0.000000D+00  E= 3.914661D-01

 Vector   46  Occ=0.000000D+00  E= 4.097730D-01

 Vector   47  Occ=0.000000D+00  E= 4.175984D-01

 Vector   48  Occ=0.000000D+00  E= 4.444259D-01

 Vector   49  Occ=0.000000D+00  E= 4.490582D-01

 Vector   50  Occ=0.000000D+00  E= 4.558004D-01

 Vector   51  Occ=0.000000D+00  E= 4.655914D-01

 Vector   52  Occ=0.000000D+00  E= 4.695977D-01

 Vector   53  Occ=0.000000D+00  E= 4.865541D-01

 Vector   54  Occ=0.000000D+00  E= 4.965323D-01

 Vector   55  Occ=0.000000D+00  E= 5.196931D-01

       Multipole analysis of the density wrt the origin
       ------------------------------------------------

     L   x y z        total         open         nuclear
     -   - - -        -----         ----         -------
     0   0 0 0     -0.000000      0.000000     32.000000

     1   1 0 0     -0.598681      0.000000     -0.518461
     1   0 1 0     -0.241472      0.000000      0.326927
     1   0 0 1      0.244252      0.000000     -2.374548

     2   2 0 0    -15.467739      0.000000     62.050069
     2   1 1 0     -2.504223      0.000000    -84.938465
     2   1 0 1     -1.607325      0.000000    -12.827611
     2   0 2 0    -19.201300      0.000000    234.908625
     2   0 1 1      0.815947      0.000000      9.791329

 Output coordinates in angstroms (scale by  1.889725989 to convert to a.u.)

  No.       Tag          Charge          X              Y              Z
 ---- ---------------- ---------- -------------- -------------- --------------
    1 O                    8.0000    -0.56539682     1.80149368    -0.00253085
    2 C                    6.0000    -0.53652945     0.42181063     0.11682213
    3 C                    6.0000     0.55514893    -0.29260991    -0.21973466
    4 H                    1.0000     1.43126548     0.24785537    -0.59481704
    5 H                    1.0000    -1.42979414     2.11787379     0.28747556
    6 H                    1.0000    -1.44795285    -0.05261591     0.49872210
    7 C                    6.0000     0.61472386    -1.79283522    -0.10040386
    8 H                    1.0000     1.42163301    -2.10903717     0.58129513
    9 H                    1.0000     0.80784303    -2.26537225    -1.07774359
   10 H                    1.0000    -0.33423800    -2.19584415     0.28865635

         Total SCF energy =   -191.955584535436
          Total MP2 energy          -192.587254637067
         Total SCF energy =   -191.955601109164
          Total MP2 energy          -192.587254637920
         Total SCF energy =   -191.955569416368
          Total MP2 energy          -192.587254376931
         Total SCF energy =   -191.955615718309
          Total MP2 energy          -192.587254377684
         Total SCF energy =   -191.955611935351
          Total MP2 energy          -192.587254411045
         Total SCF energy =   -191.955573256035
          Total MP2 energy          -192.587254413003
         Total SCF energy =   -191.955599565271
          Total MP2 energy          -192.587254637651
         Total SCF energy =   -191.955586083410
          Total MP2 energy          -192.587254639490
         Total SCF energy =   -191.955585687291
          Total MP2 energy          -192.587254613862
         Total SCF energy =   -191.955599953882
          Total MP2 energy          -192.587254611559
         Total SCF energy =   -191.955587897795
          Total MP2 energy          -192.587254675717
         Total SCF energy =   -191.955597862898
          Total MP2 energy          -192.587254674204
         Total SCF energy =   -191.955596022204
          Total MP2 energy          -192.587254706920
         Total SCF energy =   -191.955589802948
          Total MP2 energy          -192.587254706451
         Total SCF energy =   -191.955616765745
          Total MP2 energy          -192.587254522037
         Total SCF energy =   -191.955568694883
          Total MP2 energy          -192.587254525158
         Total SCF energy =   -191.955586688041
          Total MP2 energy          -192.587254682218
         Total SCF energy =   -191.955599076824
          Total MP2 energy          -192.587254682357
         Total SCF energy =   -191.955584606302
          Total MP2 energy          -192.587254712614
         Total SCF energy =   -191.955601224889
          Total MP2 energy          -192.587254711689
         Total SCF energy =   -191.955601100699
          Total MP2 energy          -192.587254604802
         Total SCF energy =   -191.955584525286
          Total MP2 energy          -192.587254605940
         Total SCF energy =   -191.955598290390
          Total MP2 energy          -192.587254679687
         Total SCF energy =   -191.955587476814
          Total MP2 energy          -192.587254678578
         Total SCF energy =   -191.955589336964
          Total MP2 energy          -192.587254707015
         Total SCF energy =   -191.955596487187
          Total MP2 energy          -192.587254705776
         Total SCF energy =   -191.955592929564
          Total MP2 energy          -192.587254456114
         Total SCF energy =   -191.955592363708
          Total MP2 energy          -192.587254445022
         Total SCF energy =   -191.955587175063
          Total MP2 energy          -192.587254486418
         Total SCF energy =   -191.955598172481
          Total MP2 energy          -192.587254487780
         Total SCF energy =   -191.955593080001
          Total MP2 energy          -192.587254467072
         Total SCF energy =   -191.955592241838
          Total MP2 energy          -192.587254460097
         Total SCF energy =   -191.955587670253
          Total MP2 energy          -192.587254632317
         Total SCF energy =   -191.955598017087
          Total MP2 energy          -192.587254638685
         Total SCF energy =   -191.955595216670
          Total MP2 energy          -192.587254703275
         Total SCF energy =   -191.955590596369
          Total MP2 energy          -192.587254699153
         Total SCF energy =   -191.955588336375
          Total MP2 energy          -192.587254659537
         Total SCF energy =   -191.955597394467
          Total MP2 energy          -192.587254656436
         Total SCF energy =   -191.955591764159
          Total MP2 energy          -192.587254708196
         Total SCF energy =   -191.955594068341
          Total MP2 energy          -192.587254713246
         Total SCF energy =   -191.955596224533
          Total MP2 energy          -192.587254686387
         Total SCF energy =   -191.955589560721
          Total MP2 energy          -192.587254687153
         Total SCF energy =   -191.955599139224
          Total MP2 energy          -192.587254592471
         Total SCF energy =   -191.955586474226
          Total MP2 energy          -192.587254601932
         Total SCF energy =   -191.955599826755
          Total MP2 energy          -192.587254603273
         Total SCF energy =   -191.955585797446
          Total MP2 energy          -192.587254602845
         Total SCF energy =   -191.955595540432
          Total MP2 energy          -192.587254691853
         Total SCF energy =   -191.955590256602
          Total MP2 energy          -192.587254694172
         Total SCF energy =   -191.955590059009
          Total MP2 energy          -192.587254697249
         Total SCF energy =   -191.955595747148
          Total MP2 energy          -192.587254697051
 Zero-Point correction to Energy  =   52.951 kcal/mol  (  0.084382 au)
 Thermal correction to Energy     =   56.290 kcal/mol  (  0.089703 au)
 Thermal correction to Enthalpy   =   56.882 kcal/mol  (  0.090647 au)
 Total Entropy                    =   70.493 cal/mol-K
   - Translational                =   38.079 cal/mol-K (mol. weight =  58.0419)
   - Rotational                   =   23.830 cal/mol-K (symmetry #  =        1)
   - Vibrational                  =    8.583 cal/mol-K
   - Translational                  =    2.979 cal/mol-K
   - Rotational                     =    2.979 cal/mol-K
   - Vibrational                    =   11.411 cal/mol-K
 P.Frequency        0.00        0.00        0.00        0.00        0.00        0.00
 P.Frequency      176.83      214.60      289.61      308.62      532.10      783.70
 P.Frequency      922.41      928.65     1050.66     1114.65     1140.19     1214.66
 P.Frequency     1338.26     1354.54     1404.24     1465.49     1491.73     1742.29
 P.Frequency     3051.31     3128.53     3146.85     3195.31     3207.90     3854.03

 Normal Eigenvalue ||           Projected Infra Red Intensities
  Mode   [cm**-1]  || [atomic units] [(debye/angs)**2] [(KM/mol)] [arbitrary]
 ------ ---------- || -------------- ----------------- ---------- -----------
    1        0.000 ||    1.061682          24.494      1034.981       7.184
    2        0.000 ||    0.018123           0.418        17.668       0.123
    3        0.000 ||    0.167391           3.862       163.181       1.133
    4        0.000 ||    0.047829           1.103        46.626       0.324
    5        0.000 ||    1.553130          35.832      1514.069      10.509
    6        0.000 ||    0.540096          12.460       526.512       3.655
    7      176.827 ||    0.172141           3.971       167.812       1.165
    8      214.597 ||    0.081824           1.888        79.766       0.554
    9      289.606 ||    4.209533          97.117      4103.661      28.484
   10      308.616 ||    0.067001           1.546        65.316       0.453
   11      532.099 ||    0.017194           0.397        16.762       0.116
   12      783.702 ||    0.766136          17.675       746.867       5.184
   13      922.409 ||    0.934380          21.557       910.880       6.322
   14      928.654 ||    0.179862           4.150       175.339       1.217
   15     1050.665 ||    0.009818           0.227         9.571       0.066
   16     1114.650 ||    0.285593           6.589       278.410       1.932
   17     1140.190 ||    1.292818          29.826      1260.303       8.748
   18     1214.656 ||    0.294923           6.804       287.506       1.996
   19     1338.265 ||   15.063752         347.533     14684.892     101.929
   20     1354.535 ||    7.183628         165.732      7002.957      48.608
   21     1404.245 ||    0.103700           2.392       101.092       0.702
   22     1465.492 ||    0.004378           0.101         4.267       0.030
   23     1491.734 ||    0.098810           2.280        96.325       0.669
   24     1742.295 ||    0.186933           4.313       182.231       1.265
   25     3051.312 ||    0.037538           0.866        36.594       0.254
   26     3128.527 ||    0.018650           0.430        18.181       0.126
   27     3146.853 ||    0.032311           0.745        31.498       0.219
   28     3195.312 ||    9.797576         226.038      9551.163      66.295
   29     3207.899 ||    0.011945           0.276        11.644       0.081
   30     3854.032 ||    0.097322           2.245        94.874       0.659
 ----------------------------------------------------------------------------

 Total times  cpu:      923.8s     wall:     1031.1s
