 Gaussian 16, Revision A.03,
 Gaussian 16:  ES64L-G16RevA.03 25-Dec-2016

 -------------------------------------------------------
 # MP2/6-31G** Opt=(Recalc=50) Freq=(vibrot, anharmonic)
 -------------------------------------------------------

 -------
 H,Fe,Me
 -------
 Symbolic Z-matrix:
 Charge =  0 Multiplicity = 1

 SCF Done:  E(RHF) =  -640.298888764     A.U. after   15 cycles
 E2 =    -0.1533566098D+01 EUMP2 =    -0.64183245486199D+03
 E2 =    -0.1533566098D+01 EUMP2 =    -0.64183245486199D+03
 SCF Done:  E(RHF) =  -640.304844476     A.U. after   15 cycles
 E2 =    -0.1533762644D+01 EUMP2 =    -0.64183860712045D+03
 SCF Done:  E(RHF) =  -640.304602777     A.U. after   14 cycles
 E2 =    -0.1534367151D+01 EUMP2 =    -0.64183896992780D+03
 SCF Done:  E(RHF) =  -640.304722736     A.U. after   13 cycles
 E2 =    -0.1534310590D+01 EUMP2 =    -0.64183903332601D+03
 SCF Done:  E(RHF) =  -640.304668575     A.U. after   11 cycles
 E2 =    -0.1534369846D+01 EUMP2 =    -0.64183903842073D+03
 SCF Done:  E(RHF) =  -640.304656870     A.U. after   11 cycles
 E2 =    -0.1534383722D+01 EUMP2 =    -0.64183904059231D+03
 SCF Done:  E(RHF) =  -640.304442819     A.U. after   13 cycles
 E2 =    -0.1534567793D+01 EUMP2 =    -0.64183901061247D+03
 SCF Done:  E(RHF) =  -640.304629910     A.U. after   13 cycles
 E2 =    -0.1534364422D+01 EUMP2 =    -0.64183899433235D+03
 SCF Done:  E(RHF) =  -640.304668828     A.U. after   12 cycles
 E2 =    -0.1534368841D+01 EUMP2 =    -0.64183903766858D+03
 SCF Done:  E(RHF) =  -640.304668649     A.U. after   10 cycles
 E2 =    -0.1534371553D+01 EUMP2 =    -0.64183904020199D+03
 E2 =    -0.1534380485D+01 EUMP2 =    -0.64183904056766D+03
 E2 =    -0.1534739226D+01 EUMP2 =    -0.64183900908303D+03
 E2 =    -0.1534460930D+01 EUMP2 =    -0.64183904323862D+03
 E2 =    -0.1534533851D+01 EUMP2 =    -0.64183904385586D+03
 E2 =    -0.1534447748D+01 EUMP2 =    -0.64183904563310D+03
 E2 =    -0.1534372438D+01 EUMP2 =    -0.64183903848066D+03
 E2 =    -0.1534430988D+01 EUMP2 =    -0.64183904529820D+03
 E2 =    -0.1534444184D+01 EUMP2 =    -0.64183904561993D+03
 E2 =    -0.1534630415D+01 EUMP2 =    -0.64183898992668D+03
 Optimization completed.
    -- Stationary point found.

 1\1\GINC-N2265\FOpt\RMP2-FC\6-31G(d,p)\C5H5F3O2\GDS001\27-Oct-2020\0\\
 # MP2/6-31G** Opt=(Recalc=50) Freq=(vibrot, anharmonic)\\H,Fe,Me\\0,1\
 C,-1.7765992504,1.3992827638,-0.3550581177\C,-2.0051824215,0.069659245
 ,-0.1293418432\O,-0.5837194443,1.9310880451,-0.5468803662\C,-0.8777960
 828,-0.8624288642,-0.0930046169\O,0.2842177007,-0.4365190174,-0.274062
 2762\C,-3.4041506581,-0.399866726,0.0528678292\H,0.055196402,1.1630780
 742,-0.4934899558\C,-1.1009971222,-2.3241594453,0.1819577351\F,-4.2904
 811574,0.623366442,0.0420975639\F,-3.5732526733,-1.058678992,1.2283417

 Normal termination of Gaussian 16 at Tue Oct 27 13:34:52 2020.

 ----------------------------------------------------------------------
 #N Geom=AllCheck Guess=TCheck SCRF=Check GenChk RMP2(FC)/6-31G(d,p) Fr
 eq
 ----------------------------------------------------------------------

 Structure from the checkpoint file:  "5.chk"
 -------
 H,Fe,Me
 -------
 Charge =  0 Multiplicity = 1

                         Standard orientation:
 ---------------------------------------------------------------------
 Center     Atomic      Atomic             Coordinates (Angstroms)
 Number     Number       Type             X           Y           Z
 ---------------------------------------------------------------------
      1          6           0        0.825307   -1.522597   -0.013352
      2          6           0        0.238647   -0.286916   -0.008800
      3          8           0        2.128681   -1.731762   -0.006950
      4          6           0        1.077147    0.912155    0.007141
      5          8           0        2.322533    0.797049    0.022058
      6          6           0       -1.245286   -0.194183    0.001692
      7          1           0        2.538581   -0.819247    0.007255
      8          6           0        0.455878    2.281658   -0.016591
      9          9           0       -1.832405   -1.411684   -0.073720
     10          9           0       -1.718987    0.539649   -1.038243
     11          9           0       -1.715539    0.399810    1.130469
     12          1           0       -0.307656    2.372010    0.752526
     13          1           0       -0.025993    2.448069   -0.978902
     14          1           0        1.239063    3.017600    0.136131
     15          1           0        0.238506   -2.431403   -0.024977
 ---------------------------------------------------------------------

                      1                      2                      3
                      A                      A                      A
 Frequencies --     47.8943                90.9838               136.0593
 Red. masses --      4.7604                 3.6493                 2.1643
 Frc consts  --      0.0064                 0.0178                 0.0236
 IR Inten    --      0.5148                 3.0693                 0.3081

                      4                      5                      6
                      A                      A                      A
 Frequencies --    174.4072               203.8833               273.8981
 Red. masses --      2.3371                 6.6955                 5.8016
 Frc consts  --      0.0419                 0.1640                 0.2564
 IR Inten    --      0.0544                 5.2292                 0.9468

                      7                      8                      9
                      A                      A                      A
 Frequencies --    342.0853               370.0171               396.5115
 Red. masses --      5.2204                 2.9944                 9.2841
 Frc consts  --      0.3599                 0.2415                 0.8600
 IR Inten    --      3.5994                 1.1797                 5.1012

                     10                     11                     12
                      A                      A                      A
 Frequencies --    423.3261               438.3179               537.2467
 Red. masses --      9.4524                 6.6390                 7.6251
 Frc consts  --      0.9980                 0.7515                 1.2967
 IR Inten    --      0.6163                 4.4944                13.6490

                     13                     14                     15
                      A                      A                      A
 Frequencies --    562.2216               592.1582               644.8138
 Red. masses --      5.2284                 7.3263                 4.4679
 Frc consts  --      0.9737                 1.5136                 1.0945
 IR Inten    --      0.0775                 8.1157                 2.0595

                     16                     17                     18
                      A                      A                      A
 Frequencies --    721.1705               760.3264               938.7591
 Red. masses --      8.4059                 5.2993                 1.4133
 Frc consts  --      2.5758                 1.8050                 0.7338
 IR Inten    --      9.4521                 5.2658                42.0703

                     19                     20                     21
                      A                      A                      A
 Frequencies --   1023.6559              1043.7934              1045.1972
 Red. masses --      1.8284                 5.0072                 1.2002
 Frc consts  --      1.1288                 3.2142                 0.7725
 IR Inten    --     12.3687                73.1356                71.4519

                     22                     23                     24
                      A                      A                      A
 Frequencies --   1076.8242              1202.6984              1210.5025
 Red. masses --      1.6084                12.0864                 9.1355
 Frc consts  --      1.0988                10.3005                 7.8870
 IR Inten    --     20.5894               255.0359               308.3268

                     25                     26                     27
                      A                      A                      A
 Frequencies --   1251.3155              1329.9348              1391.6202
 Red. masses --      3.9742                 1.3217                 5.4807
 Frc consts  --      3.6664                 1.3774                 6.2536
 IR Inten    --     75.1741               205.3388               112.0282

                     28                     29                     30
                      A                      A                      A
 Frequencies --   1436.5937              1467.2606              1484.4276
 Red. masses --      1.3591                 2.2185                 3.7647
 Frc consts  --      1.6526                 2.8141                 4.8877
 IR Inten    --      5.5073                22.0799               201.2167

                     31                     32                     33
                      A                      A                      A
 Frequencies --   1526.1894              1536.0739              1685.8482
 Red. masses --      1.0775                 1.0573                 2.9158
 Frc consts  --      1.4788                 1.4699                 4.8826
 IR Inten    --     15.9402                11.0206               162.9961

                     34                     35                     36
                      A                      A                      A
 Frequencies --   1747.3383              3148.2038              3192.9980
 Red. masses --      6.2914                 1.0350                 1.0697
 Frc consts  --     11.3175                 6.0439                 6.4255
 IR Inten    --    350.6852                 0.4935               258.4561

                     37                     38                     39
                      A                      A                      A
 Frequencies --   3244.0588              3273.4211              3301.0190
 Red. masses --      1.1000                 1.1057                 1.0931
 Frc consts  --      6.8207                 6.9805                 7.0181
 IR Inten    --      1.3057                 4.4896                 3.4887

 - Thermochemistry -
 -------------------
 Temperature   298.150 Kelvin.  Pressure   1.00000 Atm.
 Atom     1 has atomic number  6 and mass  12.00000

 Molecular mass:   154.02416 amu.
 Principal axes and moments of inertia in atomic units:
                           1         2         3
     Eigenvalues --  1000.137571544.821512213.32889
           X            1.00000  -0.00266  -0.00004
           Y            0.00266   1.00000  -0.00077
           Z            0.00004   0.00077   1.00000
 This molecule is an asymmetric top.
 Rotational symmetry number  1.
 Warning -- assumption of classical behavior for rotation
           may cause significant error
 Rotational temperatures (Kelvin)      0.08660     0.05607     0.03913
 Rotational constants (GHZ):           1.80449     1.16825     0.81540
 Zero-point vibrational energy     270793.0 (Joules/Mol)
                                   64.72108 (Kcal/Mol)
 Warning -- explicit consideration of  14 degrees of freedom as
           vibrations may cause significant error
 Vibrational temperatures:     68.91   130.91   195.76   250.93   293.34
          (Kelvin)            394.08   492.18   532.37   570.49   609.07
                              630.64   772.98   808.91   851.98   927.74
                             1037.60  1093.94  1350.66  1472.81  1501.79
                             1503.81  1549.31  1730.41  1741.64  1800.36
                             1913.48  2002.23  2066.94  2111.06  2135.76
                             2195.85  2210.07  2425.56  2514.03  4529.56
                             4594.01  4667.48  4709.72  4749.43

 Zero-point correction=                           0.103140 (Hartree/Particle)
 Thermal correction to Energy=                    0.112565
 Thermal correction to Enthalpy=                  0.113509
 Thermal correction to Gibbs Free Energy=         0.067820
 Sum of electronic and zero-point Energies=           -641.735915
 Sum of electronic and thermal Energies=              -641.726489
 Sum of electronic and thermal Enthalpies=            -641.725545
 Sum of electronic and thermal Free Energies=         -641.771235

                     E (Thermal)             CV                S
                      KCal/Mol        Cal/Mol-Kelvin    Cal/Mol-Kelvin
 Total                   70.636             33.469             96.162
 Electronic               0.000              0.000              0.000
 Translational            0.889              2.981             41.006
 Rotational               0.889              2.981             29.615
 Vibrational             68.858             27.507             25.541
 Vibration     1          0.595              1.978              4.902
 Vibration     2          0.602              1.956              3.639
 Vibration     3          0.614              1.917              2.859
 Vibration     4          0.627              1.874              2.387
 Vibration     5          0.640              1.834              2.098
 Vibration     6          0.676              1.722              1.571
 Vibration     7          0.721              1.591              1.202
 Vibration     8          0.742              1.534              1.080
 Vibration     9          0.763              1.478              0.976
 Vibration    10          0.785              1.420              0.881
 Vibration    11          0.798              1.387              0.832
 Vibration    12          0.892              1.168              0.571
 Vibration    13          0.918              1.113              0.519
 Vibration    14          0.950              1.048              0.463

 SCF Done:  E(RHF) =  -640.304611425     A.U. after   10 cycles
 E2 =    -0.1534440113D+01 EUMP2 =    -0.64183905153819D+03
 E2 =    -0.1534440113D+01 EUMP2 =    -0.64183905153819D+03
 SCF Done:  E(RHF) =  -640.304610300     A.U. after   10 cycles
 E2 =    -0.1534441207D+01 EUMP2 =    -0.64183905150668D+03
 E2 =    -0.1534441207D+01 EUMP2 =    -0.64183905150668D+03
 SCF Done:  E(RHF) =  -640.304513238     A.U. after    9 cycles
 E2 =    -0.1534537592D+01 EUMP2 =    -0.64183905083013D+03
 E2 =    -0.1534537592D+01 EUMP2 =    -0.64183905083013D+03
 SCF Done:  E(RHF) =  -640.304707899     A.U. after    9 cycles
 E2 =    -0.1534342906D+01 EUMP2 =    -0.64183905080549D+03
 E2 =    -0.1534342906D+01 EUMP2 =    -0.64183905080549D+03
 SCF Done:  E(RHF) =  -640.304761300     A.U. after    8 cycles
 E2 =    -0.1534289130D+01 EUMP2 =    -0.64183905043012D+03
 E2 =    -0.1534289130D+01 EUMP2 =    -0.64183905043012D+03
 SCF Done:  E(RHF) =  -640.304459184     A.U. after    8 cycles
 E2 =    -0.1534591238D+01 EUMP2 =    -0.64183905042151D+03
 E2 =    -0.1534591238D+01 EUMP2 =    -0.64183905042151D+03
 SCF Done:  E(RHF) =  -640.304608451     A.U. after    9 cycles
 E2 =    -0.1534439888D+01 EUMP2 =    -0.64183904833869D+03
 E2 =    -0.1534439888D+01 EUMP2 =    -0.64183904833869D+03
 SCF Done:  E(RHF) =  -640.304603094     A.U. after   10 cycles
 E2 =    -0.1534445334D+01 EUMP2 =    -0.64183904842830D+03
 E2 =    -0.1534445334D+01 EUMP2 =    -0.64183904842830D+03
 SCF Done:  E(RHF) =  -640.304623820     A.U. after    9 cycles
 E2 =    -0.1534423402D+01 EUMP2 =    -0.64183904722118D+03
 E2 =    -0.1534423402D+01 EUMP2 =    -0.64183904722118D+03

 Alpha  occ. eigenvalues --  -26.35421 -26.34464 -26.34380 -20.62649 -20.57852
 Alpha  occ. eigenvalues --  -11.52673 -11.37314 -11.37210 -11.26380 -11.24725
 Alpha  occ. eigenvalues --   -1.72552  -1.63586  -1.62816  -1.45196  -1.39603
 Alpha  occ. eigenvalues --   -1.12810  -1.02927  -0.96796  -0.89656  -0.83534
 Alpha  occ. eigenvalues --   -0.82208  -0.81814  -0.79245  -0.71394  -0.70977
 Alpha  occ. eigenvalues --   -0.69023  -0.67475  -0.66217  -0.65832  -0.64784
 Alpha  occ. eigenvalues --   -0.64095  -0.62499  -0.62453  -0.59855  -0.56837
 Alpha  occ. eigenvalues --   -0.56252  -0.52260  -0.44496  -0.38874
 Alpha virt. eigenvalues --    0.08127   0.20146   0.25661   0.25784   0.28560
 Alpha virt. eigenvalues --    0.29427   0.32790   0.33352   0.38795   0.42026
 Alpha virt. eigenvalues --    0.43038   0.44901   0.47777   0.53161   0.55659

 Mulliken charges:
               1
     1  C    0.222789
     2  C   -0.313117
     3  O   -0.499231
     4  C    0.438513
     5  O   -0.498536
     6  C    0.933924
     7  H    0.390529
     8  C   -0.425018
     9  F   -0.297072
    10  F   -0.300707
    11  F   -0.296938
    12  H    0.155719
    13  H    0.162471
    14  H    0.153718
    15  H    0.172956
 Sum of Mulliken charges =  -0.00000

 Dipole moment (field-independent basis, Debye):
    X=             -0.2847    Y=              0.4525    Z=             -0.0789  Tot=              0.5404
 Quadrupole moment (field-independent basis, Debye-Ang):
   XX=            -63.5012   YY=            -52.5897   ZZ=            -55.8916
   XY=              0.5356   XZ=             -0.0163   YZ=             -0.1012

  Exact polarizability:  64.606  -4.142  73.252   0.348   0.035  35.467
 Approx polarizability:  55.855  -3.108  57.005   0.300   0.018  36.655

 SCF Done:  E(RHF) =  -640.304588988     A.U. after    9 cycles
 E2 =    -0.1534458293D+01 EUMP2 =    -0.64183904728162D+03
 E2 =    -0.1534458293D+01 EUMP2 =    -0.64183904728162D+03
