============================== echo of input deck ==============================
echo
start 5C
title "Me,H,MeF Chelate"
charge 0

geometry
 zmatrix
  O
  C  1  R1
  C  2  R2  1  A1
  C  3  R3  2  A2  1  D0
  O  4  R4  3  A3  2  D0
  H  1  R5  2  A4  3  D0
  C  2  R6  3  A5  4  D180
  H  3  R7  2  A6  1  D180
  C  4  R8  3  A7  2  D180
  H  7  R9  2  A8  1  D1
  H  7  R10 2  A9  1  D2
  H  7  R11 2  A10 1  D3
  F  9  R12 4  A11 5  D4
  F  9  R13 4  A12 5  D5
  F  9  R14 4  A13 5  D6
  variables
    R1  1.329
    R2  1.363
    A1  124.5
    R3  1.440
    A2  119.5
    R4  1.249
    A3  123.5
    R5  0.994
    A4  105.4
    R6  1.485
    A5  122.5
    R7  1.078
    A6  120.0
    R8  1.499
    A7  117.6
    R9  1.100
    A8  110.0
    D1  180.0
    R10 1.100
    A9  110.0
    D2  60.00
    R11 1.100
    A10 110.0
    D3  -60.0
    R12 1.350
    A11 110.0
    D4  0.000
    R13 1.350
    A12 110.0
    D5  120.0
    R14 1.350
    A13 110.0
    D6  -120.
  constants
    D0  0.000
    D180 180.0
 end
end

basis spherical
 * library aug-cc-pVDZ
end

set lindep:n_dep 0

set cphf:maxsub 95
set cphf:maxiter 999
set int:acc_std 1d-16
set fock:densityscreen f

scf
 maxiter 99
 vectors input atomic
 thresh 1d-9
 tol2e 1d-15
end

mp2
 freeze atomic
 tight
end

driver
 clear
 maxiter 99
 tight
end

set "mp2:aotol2e fock" 1d-15
set mp2:aotol2e 1d-15
set mp2:backtol 1d-15

task mp2 optimize
task mp2 frequencies

================================================================================

         Total SCF energy =   -640.374790034152
          Total MP2 energy          -642.060248946555
@ Step       Energy      Delta E   Gmax     Grms     Xrms     Xmax   Walltime
@ ---- ---------------- -------- -------- -------- -------- -------- --------
@    0    -642.06024895  0.0D+00  0.02783  0.00678  0.00000  0.00000    947.1
         Total SCF energy =   -640.369967181247
          Total MP2 energy          -642.058877717218
         Total SCF energy =   -640.375340998429
          Total MP2 energy          -642.062152848056
@    1    -642.06215285 -1.9D-03  0.01350  0.00389  0.02742  0.07663   2160.4
         Total SCF energy =   -640.371887574266
          Total MP2 energy          -642.062278731884
         Total SCF energy =   -640.374374420600
          Total MP2 energy          -642.062992495509
@    2    -642.06299250 -8.4D-04  0.00488  0.00159  0.02033  0.05307   3352.2
         Total SCF energy =   -640.371380641037
          Total MP2 energy          -642.061691449859
         Total SCF energy =   -640.374152087196
          Total MP2 energy          -642.063162983242
@    3    -642.06316298 -1.7D-04  0.00332  0.00103  0.00810  0.01891   4561.7
         Total SCF energy =   -640.374759434929
          Total MP2 energy          -642.063127750895
         Total SCF energy =   -640.374473171338
          Total MP2 energy          -642.063206320422
@    4    -642.06320632 -4.3D-05  0.00134  0.00052  0.00535  0.01899   5729.3
         Total SCF energy =   -640.375383129571
          Total MP2 energy          -642.063182378895
         Total SCF energy =   -640.374849692746
          Total MP2 energy          -642.063221604255
@    5    -642.06322160 -1.5D-05  0.00086  0.00024  0.00280  0.01009   6898.7
         Total SCF energy =   -640.375070683619
          Total MP2 energy          -642.063219215780
         Total SCF energy =   -640.374952097083
          Total MP2 energy          -642.063225394084
@    6    -642.06322539 -3.8D-06  0.00036  0.00010  0.00144  0.00420   8059.5
         Total SCF energy =   -640.374944255615
          Total MP2 energy          -642.063225628797
         Total SCF energy =   -640.374948347302
          Total MP2 energy          -642.063226060054
@    7    -642.06322606 -6.7D-07  0.00020  0.00005  0.00093  0.00317   9195.0
         Total SCF energy =   -640.374933819378
          Total MP2 energy          -642.063226156232
         Total SCF energy =   -640.374933819378
          Total MP2 energy          -642.063226156232
@    8    -642.06322616 -9.6D-08  0.00010  0.00004  0.00064  0.00258  10188.0
         Total SCF energy =   -640.374942431911
          Total MP2 energy          -642.063226255532
         Total SCF energy =   -640.374942431911
          Total MP2 energy          -642.063226255532
@    9    -642.06322626 -9.9D-08  0.00002  0.00001  0.00023  0.00084  11180.9
         Total SCF energy =   -640.374945573044
          Total MP2 energy          -642.063226254262
         Total SCF energy =   -640.374945573044
          Total MP2 energy          -642.063226254262
@   10    -642.06322625  1.3D-09  0.00002  0.00001  0.00017  0.00038  12174.0
         Total SCF energy =   -640.374945233471
          Total MP2 energy          -642.063226259470
         Total SCF energy =   -640.374945233471
          Total MP2 energy          -642.063226259470
@   11    -642.06322626 -5.2D-09  0.00000  0.00000  0.00011  0.00022  13160.8
         Total SCF energy =   -640.374945070269

 Vector   19  Occ=2.000000D+00  E=-8.932717D-01  Symmetry=a'

 Vector   20  Occ=2.000000D+00  E=-8.416239D-01  Symmetry=a'

 Vector   21  Occ=2.000000D+00  E=-8.313358D-01  Symmetry=a"

 Vector   22  Occ=2.000000D+00  E=-8.243612D-01  Symmetry=a'

 Vector   23  Occ=2.000000D+00  E=-7.752400D-01  Symmetry=a'

 Vector   24  Occ=2.000000D+00  E=-7.211242D-01  Symmetry=a'

 Vector   25  Occ=2.000000D+00  E=-7.198225D-01  Symmetry=a"

 Vector   26  Occ=2.000000D+00  E=-7.152769D-01  Symmetry=a'

 Vector   27  Occ=2.000000D+00  E=-6.863885D-01  Symmetry=a'

 Vector   28  Occ=2.000000D+00  E=-6.743480D-01  Symmetry=a"

 Vector   29  Occ=2.000000D+00  E=-6.709534D-01  Symmetry=a'

 Vector   30  Occ=2.000000D+00  E=-6.602325D-01  Symmetry=a"

 Vector   31  Occ=2.000000D+00  E=-6.439322D-01  Symmetry=a"

 Vector   32  Occ=2.000000D+00  E=-6.258699D-01  Symmetry=a'

 Vector   33  Occ=2.000000D+00  E=-6.089834D-01  Symmetry=a'

 Vector   34  Occ=2.000000D+00  E=-5.837087D-01  Symmetry=a'

 Vector   35  Occ=2.000000D+00  E=-5.767634D-01  Symmetry=a"

 Vector   36  Occ=2.000000D+00  E=-5.703688D-01  Symmetry=a'

 Vector   37  Occ=2.000000D+00  E=-5.514376D-01  Symmetry=a"

 Vector   38  Occ=2.000000D+00  E=-4.644364D-01  Symmetry=a'

 Vector   39  Occ=2.000000D+00  E=-3.765096D-01  Symmetry=a"

 Vector   40  Occ=0.000000D+00  E= 2.690122D-02  Symmetry=a'

 Vector   41  Occ=0.000000D+00  E= 4.551923D-02  Symmetry=a'

 Vector   42  Occ=0.000000D+00  E= 4.734512D-02  Symmetry=a"

 Vector   43  Occ=0.000000D+00  E= 5.222310D-02  Symmetry=a'

 Vector   44  Occ=0.000000D+00  E= 5.924274D-02  Symmetry=a"

 Vector   45  Occ=0.000000D+00  E= 7.206723D-02  Symmetry=a'

 Vector   46  Occ=0.000000D+00  E= 7.967901D-02  Symmetry=a'

 Vector   47  Occ=0.000000D+00  E= 1.009336D-01  Symmetry=a'

 Vector   48  Occ=0.000000D+00  E= 1.036850D-01  Symmetry=a"

 Vector   49  Occ=0.000000D+00  E= 1.145548D-01  Symmetry=a'

 Vector   50  Occ=0.000000D+00  E= 1.158802D-01  Symmetry=a"

 Vector   51  Occ=0.000000D+00  E= 1.292766D-01  Symmetry=a'

 Vector   52  Occ=0.000000D+00  E= 1.406713D-01  Symmetry=a'

 Vector   53  Occ=0.000000D+00  E= 1.409866D-01  Symmetry=a"

 Vector   54  Occ=0.000000D+00  E= 1.497325D-01  Symmetry=a'

 Vector   55  Occ=0.000000D+00  E= 1.553737D-01  Symmetry=a'

 Vector   56  Occ=0.000000D+00  E= 1.579108D-01  Symmetry=a'

 Vector   57  Occ=0.000000D+00  E= 1.689666D-01  Symmetry=a"

 Vector   58  Occ=0.000000D+00  E= 1.735594D-01  Symmetry=a'

 Vector   59  Occ=0.000000D+00  E= 1.858746D-01  Symmetry=a'

 Vector   60  Occ=0.000000D+00  E= 1.862599D-01  Symmetry=a"

 Vector   61  Occ=0.000000D+00  E= 2.003860D-01  Symmetry=a"

 Vector   62  Occ=0.000000D+00  E= 2.082277D-01  Symmetry=a'

 Vector   63  Occ=0.000000D+00  E= 2.323227D-01  Symmetry=a'

 Vector   64  Occ=0.000000D+00  E= 2.363658D-01  Symmetry=a'

 Vector   65  Occ=0.000000D+00  E= 2.514332D-01  Symmetry=a'

 Vector   66  Occ=0.000000D+00  E= 2.584019D-01  Symmetry=a'

 Vector   67  Occ=0.000000D+00  E= 2.609206D-01  Symmetry=a"

 Vector   68  Occ=0.000000D+00  E= 2.724504D-01  Symmetry=a"

 Vector   69  Occ=0.000000D+00  E= 2.744465D-01  Symmetry=a'

 Vector   70  Occ=0.000000D+00  E= 2.801036D-01  Symmetry=a'

 Vector   71  Occ=0.000000D+00  E= 2.839454D-01  Symmetry=a'

 Vector   72  Occ=0.000000D+00  E= 3.013621D-01  Symmetry=a'

 Vector   73  Occ=0.000000D+00  E= 3.014577D-01  Symmetry=a"

 Vector   74  Occ=0.000000D+00  E= 3.214143D-01  Symmetry=a'

 Vector   75  Occ=0.000000D+00  E= 3.218593D-01  Symmetry=a"

 Vector   76  Occ=0.000000D+00  E= 3.329990D-01  Symmetry=a'

 Vector   77  Occ=0.000000D+00  E= 3.406656D-01  Symmetry=a"

 Vector   78  Occ=0.000000D+00  E= 3.461016D-01  Symmetry=a'

 Vector   79  Occ=0.000000D+00  E= 3.535411D-01  Symmetry=a'

 Vector   80  Occ=0.000000D+00  E= 3.710530D-01  Symmetry=a"

 Vector   81  Occ=0.000000D+00  E= 3.714708D-01  Symmetry=a'

 Vector   82  Occ=0.000000D+00  E= 3.807012D-01  Symmetry=a'

 Vector   83  Occ=0.000000D+00  E= 3.897144D-01  Symmetry=a"

 Vector   84  Occ=0.000000D+00  E= 3.971074D-01  Symmetry=a"

 Vector   85  Occ=0.000000D+00  E= 3.998153D-01  Symmetry=a'

 Vector   86  Occ=0.000000D+00  E= 4.032844D-01  Symmetry=a'

 Vector   87  Occ=0.000000D+00  E= 4.130005D-01  Symmetry=a"

 Vector   88  Occ=0.000000D+00  E= 4.133864D-01  Symmetry=a'

 Vector   89  Occ=0.000000D+00  E= 4.220771D-01  Symmetry=a'

 Vector   90  Occ=0.000000D+00  E= 4.311461D-01  Symmetry=a'

 Vector   91  Occ=0.000000D+00  E= 4.368966D-01  Symmetry=a'

 Vector   92  Occ=0.000000D+00  E= 4.490106D-01  Symmetry=a"

 Vector   93  Occ=0.000000D+00  E= 4.534973D-01  Symmetry=a'

 Vector   94  Occ=0.000000D+00  E= 4.566226D-01  Symmetry=a'

 Vector   95  Occ=0.000000D+00  E= 4.720311D-01  Symmetry=a'

 Vector   96  Occ=0.000000D+00  E= 4.791172D-01  Symmetry=a'

 Vector   97  Occ=0.000000D+00  E= 4.836380D-01  Symmetry=a"

 Vector   98  Occ=0.000000D+00  E= 5.038586D-01  Symmetry=a'

       Multipole analysis of the density wrt the origin
       ------------------------------------------------

     L   x y z        total         open         nuclear
     -   - - -        -----         ----         -------
     0   0 0 0     -0.000000      0.000000     78.000000

     1   1 0 0      1.096817      0.000000     -0.122197
     1   0 1 0     -1.257496      0.000000      1.457522
     1   0 0 1     -0.000000      0.000000      0.000000

     2   2 0 0    -43.660339      0.000000    269.387362
     2   1 1 0     -3.609725      0.000000    -25.709383
     2   1 0 1      0.000000      0.000000      0.000000
     2   0 2 0    -40.319274      0.000000   1180.587724
     2   0 1 1      0.000000      0.000000      0.000000

          Total MP2 energy          -642.063226259412
         Total SCF energy =   -640.374945070269
          Total MP2 energy          -642.063226259412
@   12    -642.06322626  5.8D-11  0.00000  0.00000  0.00001  0.00004  14143.2
@   12    -642.06322626  5.8D-11  0.00000  0.00000  0.00001  0.00004  14143.2

 Output coordinates in angstroms (scale by  1.889725989 to convert to a.u.)

  No.       Tag          Charge          X              Y              Z
 ---- ---------------- ---------- -------------- -------------- --------------
    1 O                    8.0000    -1.10416204    -2.46183309     0.00000000
    2 C                    6.0000     0.18415058    -2.11027887     0.00000000
    3 C                    6.0000     0.58452923    -0.78673666     0.00000000
    4 C                    6.0000    -0.40868016     0.25320754     0.00000000
    5 O                    8.0000    -1.64502575     0.06772354     0.00000000
    6 H                    1.0000    -1.62926173    -1.61226500     0.00000000
    7 C                    6.0000     1.12568718    -3.27305918     0.00000000
    8 H                    1.0000     1.64498665    -0.53831350     0.00000000
    9 C                    6.0000     0.11739137     1.70392234     0.00000000
   10 H                    1.0000     2.16950499    -2.93436729     0.00000000
   11 H                    1.0000     0.93754971    -3.89457108    -0.88934515
   12 H                    1.0000     0.93754971    -3.89457108     0.88934515
   13 F                    9.0000    -0.87284294     2.60693994     0.00000000
   14 F                    9.0000     0.89475701     1.92297009     1.09517768
   15 F                    9.0000     0.89475701     1.92297009    -1.09517768

         Total SCF energy =   -640.374945070269
          Total MP2 energy          -642.063226259412
         Total SCF energy =   -640.374960697153
          Total MP2 energy          -642.063225991250
         Total SCF energy =   -640.374928908645
          Total MP2 energy          -642.063225994351
         Total SCF energy =   -640.374979797180
          Total MP2 energy          -642.063226027714
         Total SCF energy =   -640.374909838061
          Total MP2 energy          -642.063226028963
         Total SCF energy =   -640.374945028128
          Total MP2 energy          -642.063226233565
         Total SCF energy =   -640.374945028129
          Total MP2 energy          -642.063226233565
         Total SCF energy =   -640.374923978938
          Total MP2 energy          -642.063225934285
         Total SCF energy =   -640.374965491905
          Total MP2 energy          -642.063225928401
         Total SCF energy =   -640.374952219570
          Total MP2 energy          -642.063225868507
         Total SCF energy =   -640.374937124154
          Total MP2 energy          -642.063225868936
         Total SCF energy =   -640.374944942491
          Total MP2 energy          -642.063226162004
         Total SCF energy =   -640.374944942491
          Total MP2 energy          -642.063226162004
         Total SCF energy =   -640.374944116084
          Total MP2 energy          -642.063225890863
         Total SCF energy =   -640.374945245172
          Total MP2 energy          -642.063225890061
         Total SCF energy =   -640.374931446606
          Total MP2 energy          -642.063225895331
         Total SCF energy =   -640.374957997983
          Total MP2 energy          -642.063225893935
         Total SCF energy =   -640.374945038322
          Total MP2 energy          -642.063226242655
         Total SCF energy =   -640.374945038322
          Total MP2 energy          -642.063226242654
         Total SCF energy =   -640.374955686178
          Total MP2 energy          -642.063226163441
         Total SCF energy =   -640.374934249900
          Total MP2 energy          -642.063226168714
         Total SCF energy =   -640.374916939787
          Total MP2 energy          -642.063226133067
         Total SCF energy =   -640.374972937861
          Total MP2 energy          -642.063226131905
         Total SCF energy =   -640.374945047863
          Total MP2 energy          -642.063226243827
         Total SCF energy =   -640.374945047865
          Total MP2 energy          -642.063226243829
         Total SCF energy =   -640.374949220024
          Total MP2 energy          -642.063225964146
         Total SCF energy =   -640.374940289903
          Total MP2 energy          -642.063225964041
         Total SCF energy =   -640.374941512514
          Total MP2 energy          -642.063225992338
         Total SCF energy =   -640.374948052962
          Total MP2 energy          -642.063225993144
         Total SCF energy =   -640.374944783432
          Total MP2 energy          -642.063225986258
         Total SCF energy =   -640.374944783433
          Total MP2 energy          -642.063225986259
         Total SCF energy =   -640.374934602983
          Total MP2 energy          -642.063226079845
         Total SCF energy =   -640.374955176035
          Total MP2 energy          -642.063226078590
         Total SCF energy =   -640.374943019425
          Total MP2 energy          -642.063226223222
         Total SCF energy =   -640.374947035677
          Total MP2 energy          -642.063226223597
         Total SCF energy =   -640.374945056636
          Total MP2 energy          -642.063226249052
         Total SCF energy =   -640.374945056637
          Total MP2 energy          -642.063226249054
         Total SCF energy =   -640.374952306091
          Total MP2 energy          -642.063225994166
         Total SCF energy =   -640.374937252018
          Total MP2 energy          -642.063225995482
         Total SCF energy =   -640.374969783063
          Total MP2 energy          -642.063225956934
         Total SCF energy =   -640.374919657273
          Total MP2 energy          -642.063225955742
         Total SCF energy =   -640.374944824906
          Total MP2 energy          -642.063226035564
         Total SCF energy =   -640.374944824904
          Total MP2 energy          -642.063226035563
         Total SCF energy =   -640.374937202315
          Total MP2 energy          -642.063226096221
         Total SCF energy =   -640.374952610592
          Total MP2 energy          -642.063226095662
         Total SCF energy =   -640.374942115956
          Total MP2 energy          -642.063226219132
         Total SCF energy =   -640.374947933343
          Total MP2 energy          -642.063226218488
         Total SCF energy =   -640.374945043302
          Total MP2 energy          -642.063226237200
         Total SCF energy =   -640.374945043303
          Total MP2 energy          -642.063226237201
         Total SCF energy =   -640.374945836241
          Total MP2 energy          -642.063226232169
         Total SCF energy =   -640.374944240521
          Total MP2 energy          -642.063226232362
         Total SCF energy =   -640.374950028849
          Total MP2 energy          -642.063226188309
         Total SCF energy =   -640.374939962755
          Total MP2 energy          -642.063226188272
         Total SCF energy =   -640.374938641776
          Total MP2 energy          -642.063226138379
         Total SCF energy =   -640.374951254136
          Total MP2 energy          -642.063226138466
         Total SCF energy =   -640.374972521634
          Total MP2 energy          -642.063226130128
         Total SCF energy =   -640.374917347389
          Total MP2 energy          -642.063226128470
         Total SCF energy =   -640.374922854214
          Total MP2 energy          -642.063226149365
         Total SCF energy =   -640.374967053600
          Total MP2 energy          -642.063226151176
         Total SCF energy =   -640.374945024205
          Total MP2 energy          -642.063226222226
         Total SCF energy =   -640.374945024206
          Total MP2 energy          -642.063226222226
         Total SCF energy =   -640.374924798021
          Total MP2 energy          -642.063226175856
         Total SCF energy =   -640.374965161952
          Total MP2 energy          -642.063226176442
         Total SCF energy =   -640.374940622206
          Total MP2 energy          -642.063226222138
         Total SCF energy =   -640.374949424575
          Total MP2 energy          -642.063226222172
         Total SCF energy =   -640.374973549509
          Total MP2 energy          -642.063226127954
         Total SCF energy =   -640.374916317485
          Total MP2 energy          -642.063226127181
 Zero-Point correction to Energy  =   62.847 kcal/mol  (  0.100153 au)
 Thermal correction to Energy     =   68.966 kcal/mol  (  0.109904 au)
 Thermal correction to Enthalpy   =   69.558 kcal/mol  (  0.110848 au)
 Total Entropy                    =  100.716 cal/mol-K
   - Translational                =   40.987 cal/mol-K (mol. weight = 154.0241)
   - Rotational                   =   29.874 cal/mol-K (symmetry #  =        1)
   - Vibrational                  =   29.854 cal/mol-K
   - Translational                  =    2.979 cal/mol-K
   - Rotational                     =    2.979 cal/mol-K
   - Vibrational                    =   28.148 cal/mol-K
 P.Frequency       -0.00       -0.00       -0.00        0.00        0.00        0.00
 P.Frequency       10.69       84.00      136.90      142.06      182.38      266.71
 P.Frequency      267.15      318.01      395.56      428.52      500.25      521.86
 P.Frequency      567.73      578.24      713.73      761.35      785.54      865.22
 P.Frequency      935.09      947.60     1019.68     1047.89     1120.46     1133.18
 P.Frequency     1203.77     1221.47     1341.52     1382.22     1422.70     1459.39
 P.Frequency     1463.18     1494.77     1660.92     1692.12     3074.13     3160.12
 P.Frequency     3196.09     3205.99     3274.80

 Normal Eigenvalue ||           Projected Infra Red Intensities
  Mode   [cm**-1]  || [atomic units] [(debye/angs)**2] [(KM/mol)] [arbitrary]
 ------ ---------- || -------------- ----------------- ---------- -----------
    1       -0.000 ||    0.001038           0.024         1.012       0.208
    2       -0.000 ||    0.000030           0.001         0.029       0.006
    3       -0.000 ||    0.000488           0.011         0.476       0.098
    4        0.000 ||    0.000522           0.012         0.509       0.105
    5        0.000 ||    0.000040           0.001         0.039       0.008
    6        0.000 ||    0.000291           0.007         0.283       0.058
    7       10.689 ||    0.001920           0.044         1.872       0.385
    8       83.997 ||    0.000295           0.007         0.287       0.059
    9      136.899 ||    0.000830           0.019         0.809       0.167
   10      142.060 ||    0.000564           0.013         0.549       0.113
   11      182.379 ||    0.000230           0.005         0.224       0.046
   12      266.711 ||    0.004828           0.111         4.706       0.969
   13      267.151 ||    0.000557           0.013         0.543       0.112
   14      318.011 ||    0.000466           0.011         0.454       0.094
   15      395.555 ||    0.003863           0.089         3.766       0.775
   16      428.523 ||    0.001537           0.035         1.498       0.308
   17      500.254 ||    0.002516           0.058         2.453       0.505
   18      521.857 ||    0.022414           0.517        21.850       4.497
   19      567.731 ||    0.006702           0.155         6.533       1.345
   20      578.237 ||    0.000340           0.008         0.331       0.068
   21      713.734 ||    0.026052           0.601        25.396       5.227
   22      761.353 ||    0.001163           0.027         1.134       0.233
   23      785.539 ||    0.035704           0.824        34.806       7.163
   24      865.215 ||    0.054073           1.248        52.713      10.849
   25      935.086 ||    0.059443           1.371        57.948      11.926
   26      947.601 ||    0.010387           0.240        10.126       2.084
   27     1019.676 ||    0.008443           0.195         8.231       1.694
   28     1047.895 ||    0.000079           0.002         0.077       0.016
   29     1120.457 ||    0.144616           3.336       140.979      29.014
   30     1133.179 ||    0.274464           6.332       267.561      55.065
   31     1203.769 ||    0.247847           5.718       241.614      49.725
   32     1221.472 ||    0.136672           3.153       133.235      27.420
   33     1341.517 ||    0.114413           2.640       111.536      22.955
   34     1382.225 ||    0.051601           1.190        50.303      10.353
   35     1422.704 ||    0.077832           1.796        75.874      15.615
   36     1459.395 ||    0.074395           1.716        72.524      14.926
   37     1463.177 ||    0.008574           0.198         8.358       1.720
   38     1494.768 ||    0.036600           0.844        35.680       7.343
   39     1660.917 ||    0.272384           6.284       265.533      54.648
   40     1692.120 ||    0.359863           8.302       350.812      72.199
   41     3074.128 ||    0.003208           0.074         3.127       0.644
   42     3160.116 ||    0.001925           0.044         1.877       0.386
   43     3196.090 ||    0.059952           1.383        58.444      12.028
   44     3205.993 ||    0.132497           3.057       129.164      26.583
   45     3274.799 ||    0.001301           0.030         1.268       0.261
 ----------------------------------------------------------------------------

 Total times  cpu:   120682.2s     wall:   121294.5s
