============================== echo of input deck ==============================
echo
start 5O
title "Me,H,MeF Open"
charge 0

geometry
 zmatrix
  O
  C  1  R1
  C  2  R2  1  A1
  C  3  R3  2  A2  1  D0
  O  4  R4  3  A3  2  D0
  H  1  R5  2  A4  3  D180
  C  2  R6  3  A5  4  D180
  H  3  R7  2  A6  1  D180
  C  4  R8  3  A7  2  D180
  H  7  R9  2  A8  1  D1
  H  7  R10 2  A9  1  D2
  H  7  R11 2  A10 1  D3
  F  9  R12 4  A11 5  D4
  F  9  R13 4  A12 5  D5
  F  9  R14 4  A13 5  D6
  variables
    R1  1.329
    R2  1.363
    A1  124.5
    R3  1.440
    A2  119.5
    R4  1.249
    A3  123.5
    R5  0.994
    A4  105.4
    R6  1.485
    A5  122.5
    R7  1.078
    A6  120.0
    R8  1.499
    A7  117.6
    R9  1.100
    A8  110.0
    D1  180.0
    R10 1.100
    A9  110.0
    D2  60.00
    R11 1.100
    A10 110.0
    D3  -60.0
    R12 1.350
    A11 110.0
    D4  0.000
    R13 1.350
    A12 110.0
    D5  120.0
    R14 1.350
    A13 110.0
    D6  -120.
  constants
    D0  0.000
    D180 180.0
 end
end

basis spherical
 * library aug-cc-pVDZ
end

set lindep:n_dep 0

set cphf:maxsub 95
set cphf:maxiter 999
set int:acc_std 1d-16
set fock:densityscreen f

scf
 maxiter 99
 vectors input atomic
 thresh 1d-9
 tol2e 1d-15
end

mp2
 freeze atomic
 tight
end

driver
 clear
 maxiter 99
 tight
end

set "mp2:aotol2e fock" 1d-15
set mp2:aotol2e 1d-15
set mp2:backtol 1d-15

task mp2 optimize
task mp2 frequencies

================================================================================

         Total SCF energy =   -640.349304190723
          Total MP2 energy          -642.035489420545
@ Step       Energy      Delta E   Gmax     Grms     Xrms     Xmax   Walltime
@ ---- ---------------- -------- -------- -------- -------- -------- --------
@    0    -642.03548942  0.0D+00  0.02931  0.01064  0.00000  0.00000    937.6
         Total SCF energy =   -640.347998033982
          Total MP2 energy          -642.034203654916
         Total SCF energy =   -640.355396858239
          Total MP2 energy          -642.041109983632
@    1    -642.04110998 -5.6D-03  0.01405  0.00521  0.08910  0.20225   2131.6
         Total SCF energy =   -640.354658717851
          Total MP2 energy          -642.041441943230
         Total SCF energy =   -640.356996063894
          Total MP2 energy          -642.043097058243
@    2    -642.04309706 -2.0D-03  0.00753  0.00239  0.04423  0.12570   3297.6
         Total SCF energy =   -640.353957360639
          Total MP2 energy          -642.040461265003
         Total SCF energy =   -640.357393323021
          Total MP2 energy          -642.043508044405
@    3    -642.04350804 -4.1D-04  0.00522  0.00174  0.01314  0.03000   4474.3
         Total SCF energy =   -640.357936218117
          Total MP2 energy          -642.043464935515
         Total SCF energy =   -640.357884795487
          Total MP2 energy          -642.043700084335
@    4    -642.04370008 -1.9D-04  0.00203  0.00069  0.01042  0.02813   5603.3
         Total SCF energy =   -640.358276188943
          Total MP2 energy          -642.043706268803
         Total SCF energy =   -640.358122768902
          Total MP2 energy          -642.043732750944
@    5    -642.04373275 -3.3D-05  0.00131  0.00035  0.00383  0.01158   6743.5
         Total SCF energy =   -640.358229250569
          Total MP2 energy          -642.043738599862
         Total SCF energy =   -640.358194835609
          Total MP2 energy          -642.043742664437
@    6    -642.04374266 -9.9D-06  0.00045  0.00015  0.00323  0.01224   7870.4
         Total SCF energy =   -640.358124456016
          Total MP2 energy          -642.043744070217
         Total SCF energy =   -640.358141681842
          Total MP2 energy          -642.043744220890
@    7    -642.04374422 -1.6D-06  0.00013  0.00006  0.00085  0.00273   8968.8
         Total SCF energy =   -640.358147282767
          Total MP2 energy          -642.043744014778
         Total SCF energy =   -640.358144454110
          Total MP2 energy          -642.043744480453
@    8    -642.04374448 -2.6D-07  0.00008  0.00002  0.00061  0.00175  10068.6
         Total SCF energy =   -640.358140065479
          Total MP2 energy          -642.043744504518
         Total SCF energy =   -640.358140065479
          Total MP2 energy          -642.043744504518
@    9    -642.04374450 -2.4D-08  0.00003  0.00001  0.00018  0.00084  11031.2
         Total SCF energy =   -640.358143430479
          Total MP2 energy          -642.043744511007
         Total SCF energy =   -640.358143430479
          Total MP2 energy          -642.043744511007
@   10    -642.04374451 -6.5D-09  0.00002  0.00001  0.00012  0.00029  11994.5
         Total SCF energy =   -640.358143616071
          Total MP2 energy          -642.043744513825
         Total SCF energy =   -640.358143616071
          Total MP2 energy          -642.043744513825
@   11    -642.04374451 -2.8D-09  0.00001  0.00000  0.00006  0.00022  12952.1
         Total SCF energy =   -640.358143312509
          Total MP2 energy          -642.043744514138
         Total SCF energy =   -640.358143312509
          Total MP2 energy          -642.043744514138
@   12    -642.04374451 -3.1D-10  0.00001  0.00000  0.00002  0.00006  13909.2
         Total SCF energy =   -640.358143517579

 Vector   19  Occ=2.000000D+00  E=-8.911328D-01  Symmetry=a'

 Vector   20  Occ=2.000000D+00  E=-8.273879D-01  Symmetry=a'

 Vector   21  Occ=2.000000D+00  E=-8.189490D-01  Symmetry=a"

 Vector   22  Occ=2.000000D+00  E=-8.103516D-01  Symmetry=a'

 Vector   23  Occ=2.000000D+00  E=-7.624405D-01  Symmetry=a'

 Vector   24  Occ=2.000000D+00  E=-7.136847D-01  Symmetry=a'

 Vector   25  Occ=2.000000D+00  E=-7.085071D-01  Symmetry=a"

 Vector   26  Occ=2.000000D+00  E=-7.085043D-01  Symmetry=a'

 Vector   27  Occ=2.000000D+00  E=-6.763331D-01  Symmetry=a'

 Vector   28  Occ=2.000000D+00  E=-6.628227D-01  Symmetry=a"

 Vector   29  Occ=2.000000D+00  E=-6.586413D-01  Symmetry=a'

 Vector   30  Occ=2.000000D+00  E=-6.492521D-01  Symmetry=a"

 Vector   31  Occ=2.000000D+00  E=-6.473807D-01  Symmetry=a"

 Vector   32  Occ=2.000000D+00  E=-6.353316D-01  Symmetry=a'

 Vector   33  Occ=2.000000D+00  E=-5.909638D-01  Symmetry=a'

 Vector   34  Occ=2.000000D+00  E=-5.873790D-01  Symmetry=a'

 Vector   35  Occ=2.000000D+00  E=-5.765625D-01  Symmetry=a"

 Vector   36  Occ=2.000000D+00  E=-5.623412D-01  Symmetry=a'

 Vector   37  Occ=2.000000D+00  E=-5.402367D-01  Symmetry=a"

 Vector   38  Occ=2.000000D+00  E=-4.435288D-01  Symmetry=a'

 Vector   39  Occ=2.000000D+00  E=-3.700851D-01  Symmetry=a"

 Vector   40  Occ=0.000000D+00  E= 1.863811D-02  Symmetry=a'

 Vector   41  Occ=0.000000D+00  E= 3.848521D-02  Symmetry=a'

 Vector   42  Occ=0.000000D+00  E= 4.261049D-02  Symmetry=a"

 Vector   43  Occ=0.000000D+00  E= 5.158803D-02  Symmetry=a'

 Vector   44  Occ=0.000000D+00  E= 7.000808D-02  Symmetry=a"

 Vector   45  Occ=0.000000D+00  E= 7.003519D-02  Symmetry=a'

 Vector   46  Occ=0.000000D+00  E= 8.500598D-02  Symmetry=a'

 Vector   47  Occ=0.000000D+00  E= 9.374835D-02  Symmetry=a'

 Vector   48  Occ=0.000000D+00  E= 1.101606D-01  Symmetry=a"

 Vector   49  Occ=0.000000D+00  E= 1.149273D-01  Symmetry=a'

 Vector   50  Occ=0.000000D+00  E= 1.164040D-01  Symmetry=a"

 Vector   51  Occ=0.000000D+00  E= 1.236313D-01  Symmetry=a'

 Vector   52  Occ=0.000000D+00  E= 1.353843D-01  Symmetry=a'

 Vector   53  Occ=0.000000D+00  E= 1.431315D-01  Symmetry=a'

 Vector   54  Occ=0.000000D+00  E= 1.442599D-01  Symmetry=a"

 Vector   55  Occ=0.000000D+00  E= 1.525006D-01  Symmetry=a'

 Vector   56  Occ=0.000000D+00  E= 1.634392D-01  Symmetry=a'

 Vector   57  Occ=0.000000D+00  E= 1.691729D-01  Symmetry=a"

 Vector   58  Occ=0.000000D+00  E= 1.753953D-01  Symmetry=a'

 Vector   59  Occ=0.000000D+00  E= 1.812355D-01  Symmetry=a'

 Vector   60  Occ=0.000000D+00  E= 1.833892D-01  Symmetry=a"

 Vector   61  Occ=0.000000D+00  E= 2.127695D-01  Symmetry=a"

 Vector   62  Occ=0.000000D+00  E= 2.202314D-01  Symmetry=a'

 Vector   63  Occ=0.000000D+00  E= 2.230598D-01  Symmetry=a'

 Vector   64  Occ=0.000000D+00  E= 2.278702D-01  Symmetry=a'

 Vector   65  Occ=0.000000D+00  E= 2.450836D-01  Symmetry=a'

 Vector   66  Occ=0.000000D+00  E= 2.550271D-01  Symmetry=a'

 Vector   67  Occ=0.000000D+00  E= 2.608499D-01  Symmetry=a"

 Vector   68  Occ=0.000000D+00  E= 2.663014D-01  Symmetry=a'

 Vector   69  Occ=0.000000D+00  E= 2.743560D-01  Symmetry=a"

 Vector   70  Occ=0.000000D+00  E= 2.790144D-01  Symmetry=a'

 Vector   71  Occ=0.000000D+00  E= 2.890980D-01  Symmetry=a'

 Vector   72  Occ=0.000000D+00  E= 3.035347D-01  Symmetry=a'

 Vector   73  Occ=0.000000D+00  E= 3.089275D-01  Symmetry=a"

 Vector   74  Occ=0.000000D+00  E= 3.237187D-01  Symmetry=a"

 Vector   75  Occ=0.000000D+00  E= 3.288767D-01  Symmetry=a'

 Vector   76  Occ=0.000000D+00  E= 3.379671D-01  Symmetry=a'

 Vector   77  Occ=0.000000D+00  E= 3.410697D-01  Symmetry=a"

 Vector   78  Occ=0.000000D+00  E= 3.424286D-01  Symmetry=a'

 Vector   79  Occ=0.000000D+00  E= 3.625857D-01  Symmetry=a'

 Vector   80  Occ=0.000000D+00  E= 3.677166D-01  Symmetry=a'

 Vector   81  Occ=0.000000D+00  E= 3.751638D-01  Symmetry=a"

 Vector   82  Occ=0.000000D+00  E= 3.775745D-01  Symmetry=a'

 Vector   83  Occ=0.000000D+00  E= 3.892250D-01  Symmetry=a"

 Vector   84  Occ=0.000000D+00  E= 3.911083D-01  Symmetry=a'

 Vector   85  Occ=0.000000D+00  E= 3.987716D-01  Symmetry=a"

 Vector   86  Occ=0.000000D+00  E= 4.060700D-01  Symmetry=a'

 Vector   87  Occ=0.000000D+00  E= 4.098417D-01  Symmetry=a"

 Vector   88  Occ=0.000000D+00  E= 4.136671D-01  Symmetry=a'

 Vector   89  Occ=0.000000D+00  E= 4.236020D-01  Symmetry=a'

 Vector   90  Occ=0.000000D+00  E= 4.368776D-01  Symmetry=a'

 Vector   91  Occ=0.000000D+00  E= 4.421452D-01  Symmetry=a'

 Vector   92  Occ=0.000000D+00  E= 4.463504D-01  Symmetry=a"

 Vector   93  Occ=0.000000D+00  E= 4.581883D-01  Symmetry=a'

 Vector   94  Occ=0.000000D+00  E= 4.632875D-01  Symmetry=a'

 Vector   95  Occ=0.000000D+00  E= 4.752339D-01  Symmetry=a"

 Vector   96  Occ=0.000000D+00  E= 4.781261D-01  Symmetry=a'

 Vector   97  Occ=0.000000D+00  E= 4.909901D-01  Symmetry=a'

 Vector   98  Occ=0.000000D+00  E= 5.011992D-01  Symmetry=a"

       Multipole analysis of the density wrt the origin
       ------------------------------------------------

     L   x y z        total         open         nuclear
     -   - - -        -----         ----         -------
     0   0 0 0     -0.000000      0.000000     78.000000

     1   1 0 0      1.257904      0.000000      0.085552
     1   0 1 0     -2.426310      0.000000      0.153266
     1   0 0 1      0.000000      0.000000      0.000000

     2   2 0 0    -45.493480      0.000000    279.240173
     2   1 1 0     -1.283743      0.000000    -14.924155
     2   1 0 1      0.000000      0.000000      0.000000
     2   0 2 0    -30.099496      0.000000   1209.968138
     2   0 1 1      0.000000      0.000000      0.000000

          Total MP2 energy          -642.043744514206
         Total SCF energy =   -640.358143517579
          Total MP2 energy          -642.043744514206
@   13    -642.04374451 -6.8D-11  0.00000  0.00000  0.00001  0.00003  14861.0
@   13    -642.04374451 -6.8D-11  0.00000  0.00000  0.00001  0.00003  14861.0

 Output coordinates in angstroms (scale by  1.889725989 to convert to a.u.)

  No.       Tag          Charge          X              Y              Z
 ---- ---------------- ---------- -------------- -------------- --------------
    1 O                    8.0000    -1.15259976    -2.51384192     0.00000000
    2 C                    6.0000     0.14748346    -2.12079155     0.00000000
    3 C                    6.0000     0.46608235    -0.79154422     0.00000000
    4 C                    6.0000    -0.51174683     0.29695823     0.00000000
    5 O                    8.0000    -1.73757819     0.20920493     0.00000000
    6 H                    1.0000    -1.18747544    -3.48246376     0.00000000
    7 C                    6.0000     1.18174335    -3.21040870     0.00000000
    8 H                    1.0000     1.52492740    -0.53127200     0.00000000
    9 C                    6.0000     0.14048950     1.70522923     0.00000000
   10 H                    1.0000     2.19564804    -2.79012736     0.00000000
   11 H                    1.0000     1.06087626    -3.84554182    -0.89398439
   12 H                    1.0000     1.06087626    -3.84554182     0.89398439
   13 F                    9.0000    -0.76691339     2.69110333     0.00000000
   14 F                    9.0000     0.93720847     1.86203110     1.09584576
   15 F                    9.0000     0.93720847     1.86203110    -1.09584576

         Total SCF energy =   -640.358143517579
          Total MP2 energy          -642.043744514206
         Total SCF energy =   -640.358172297032
          Total MP2 energy          -642.043744310222
         Total SCF energy =   -640.358114308692
          Total MP2 energy          -642.043744311775
         Total SCF energy =   -640.358118263155
          Total MP2 energy          -642.043744192745
         Total SCF energy =   -640.358168092623
          Total MP2 energy          -642.043744186930
         Total SCF energy =   -640.358143489418
          Total MP2 energy          -642.043744501370
         Total SCF energy =   -640.358143489419
          Total MP2 energy          -642.043744501370
         Total SCF energy =   -640.358124720495
          Total MP2 energy          -642.043744215505
         Total SCF energy =   -640.358161692152
          Total MP2 energy          -642.043744215002
         Total SCF energy =   -640.358164979107
          Total MP2 energy          -642.043744097401
         Total SCF energy =   -640.358121190993
          Total MP2 energy          -642.043744097560
         Total SCF energy =   -640.358143399027
          Total MP2 energy          -642.043744425814
         Total SCF energy =   -640.358143399026
          Total MP2 energy          -642.043744425814
         Total SCF energy =   -640.358144577178
          Total MP2 energy          -642.043744173633
         Total SCF energy =   -640.358141730428
         Total SCF energy =   -640.358143488945
          Total MP2 energy          -642.043744502893
         Total SCF energy =   -640.358143488946
          Total MP2 energy          -642.043744502894
         Total SCF energy =   -640.358140847183
          Total MP2 energy          -642.043744484386
         Total SCF energy =   -640.358146106904
          Total MP2 energy          -642.043744485814
         Total SCF energy =   -640.358170411257
          Total MP2 energy          -642.043744252870
         Total SCF energy =   -640.358116103757
          Total MP2 energy          -642.043744261080
         Total SCF energy =   -640.358143506936
          Total MP2 energy          -642.043744510488
         Total SCF energy =   -640.358143506937
          Total MP2 energy          -642.043744510489
         Total SCF energy =   -640.358147386833
          Total MP2 energy          -642.043744226944
         Total SCF energy =   -640.358139030054
          Total MP2 energy          -642.043744227668
         Total SCF energy =   -640.358140191430
          Total MP2 energy          -642.043744247246
         Total SCF energy =   -640.358146267527
          Total MP2 energy          -642.043744246637
         Total SCF energy =   -640.358143233484
          Total MP2 energy          -642.043744243380
         Total SCF energy =   -640.358143233484
          Total MP2 energy          -642.043744243381
         Total SCF energy =   -640.358132902781
          Total MP2 energy          -642.043744336797
         Total SCF energy =   -640.358153775258
          Total MP2 energy          -642.043744336065
         Total SCF energy =   -640.358141890221
          Total MP2 energy          -642.043744475936
         Total SCF energy =   -640.358145053769
          Total MP2 energy          -642.043744475340
         Total SCF energy =   -640.358143503153
          Total MP2 energy          -642.043744503441
         Total SCF energy =   -640.358143503153
          Total MP2 energy          -642.043744503441
         Total SCF energy =   -640.358150268975
          Total MP2 energy          -642.043744252255
         Total SCF energy =   -640.358136186854
          Total MP2 energy          -642.043744251126
         Total SCF energy =   -640.358165556704
          Total MP2 energy          -642.043744212499
         Total SCF energy =   -640.358120786389
          Total MP2 energy          -642.043744213342
         Total SCF energy =   -640.358143277802
          Total MP2 energy          -642.043744295547
         Total SCF energy =   -640.358143277802
          Total MP2 energy          -642.043744295546
         Total SCF energy =   -640.358135198220
          Total MP2 energy          -642.043744359220
         Total SCF energy =   -640.358151525080
          Total MP2 energy          -642.043744358929
         Total SCF energy =   -640.358140070515
          Total MP2 energy          -642.043744465641
         Total SCF energy =   -640.358146858167
          Total MP2 energy          -642.043744466086
         Total SCF energy =   -640.358143490842
          Total MP2 energy          -642.043744492313
         Total SCF energy =   -640.358143490843
          Total MP2 energy          -642.043744492314
         Total SCF energy =   -640.358143888271
          Total MP2 energy          -642.043744488933
         Total SCF energy =   -640.358143086183
          Total MP2 energy          -642.043744488602
         Total SCF energy =   -640.358148151488
          Total MP2 energy          -642.043744442412
         Total SCF energy =   -640.358138733441
          Total MP2 energy          -642.043744442258
         Total SCF energy =   -640.358137131671
          Total MP2 energy          -642.043744394221
         Total SCF energy =   -640.358149660558
          Total MP2 energy          -642.043744393595
         Total SCF energy =   -640.358168717013
          Total MP2 energy          -642.043744397460
         Total SCF energy =   -640.358118074344
          Total MP2 energy          -642.043744399143
         Total SCF energy =   -640.358119606715
          Total MP2 energy          -642.043744392253
         Total SCF energy =   -640.358167169447
          Total MP2 energy          -642.043744390652
         Total SCF energy =   -640.358143471595
          Total MP2 energy          -642.043744477029
         Total SCF energy =   -640.358143471596
          Total MP2 energy          -642.043744477029
         Total SCF energy =   -640.358123240052
          Total MP2 energy          -642.043744430747
         Total SCF energy =   -640.358163613755
          Total MP2 energy          -642.043744430388
         Total SCF energy =   -640.358140850959
          Total MP2 energy          -642.043744478783
         Total SCF energy =   -640.358146094171
          Total MP2 energy          -642.043744479018
         Total SCF energy =   -640.358171879189
          Total MP2 energy          -642.043744384333
         Total SCF energy =   -640.358114887758
          Total MP2 energy          -642.043744385393
 Zero-Point correction to Energy  =   62.403 kcal/mol  (  0.099445 au)
 Thermal correction to Energy     =   68.791 kcal/mol  (  0.109625 au)
 Thermal correction to Enthalpy   =   69.383 kcal/mol  (  0.110569 au)
 Total Entropy                    =  101.058 cal/mol-K
   - Translational                =   40.987 cal/mol-K (mol. weight = 154.0241)
   - Rotational                   =   29.940 cal/mol-K (symmetry #  =        1)
   - Vibrational                  =   30.131 cal/mol-K
   - Translational                  =    2.979 cal/mol-K
   - Rotational                     =    2.979 cal/mol-K
   - Vibrational                    =   29.535 cal/mol-K
 P.Frequency       -0.00       -0.00        0.00        0.00        0.00        0.00
 P.Frequency       32.57       52.84      125.89      134.11      193.49      225.70
 P.Frequency      257.04      315.72      359.00      426.84      435.22      487.31
 P.Frequency      496.50      562.65      567.69      709.08      759.32      805.15
 P.Frequency      850.21      913.03     1012.14     1048.28     1100.65     1120.76
 P.Frequency     1197.87     1199.90     1291.53     1350.86     1401.30     1425.21
 P.Frequency     1469.31     1480.43     1699.42     1736.44     3055.39     3135.35
 P.Frequency     3191.67     3257.51     3788.77

 Normal Eigenvalue ||           Projected Infra Red Intensities
  Mode   [cm**-1]  || [atomic units] [(debye/angs)**2] [(KM/mol)] [arbitrary]
 ------ ---------- || -------------- ----------------- ---------- -----------
    1       -0.000 ||    0.002716           0.063         2.647       0.598
    2       -0.000 ||    0.000734           0.017         0.716       0.162
    3        0.000 ||    0.000472           0.011         0.460       0.104
    4        0.000 ||    0.000003           0.000         0.003       0.001
    5        0.000 ||    0.000913           0.021         0.890       0.201
    6        0.000 ||    0.000878           0.020         0.856       0.193
    7       32.569 ||    0.001976           0.046         1.927       0.435
    8       52.844 ||    0.001004           0.023         0.979       0.221
    9      125.891 ||    0.001096           0.025         1.069       0.241
   10      134.114 ||    0.000225           0.005         0.219       0.049
   11      193.490 ||    0.000043           0.001         0.042       0.009
   12      225.705 ||    0.002469           0.057         2.407       0.544
   13      257.036 ||    0.006840           0.158         6.668       1.506
   14      315.725 ||    0.000528           0.012         0.514       0.116
   15      359.002 ||    0.004072           0.094         3.969       0.896
   16      426.841 ||    0.001848           0.043         1.801       0.407
   17      435.223 ||    0.075053           1.732        73.165      16.524
   18      487.314 ||    0.026793           0.618        26.120       5.899
   19      496.497 ||    0.006274           0.145         6.116       1.381
   20      562.654 ||    0.007147           0.165         6.967       1.573
   21      567.691 ||    0.008568           0.198         8.353       1.886
   22      709.079 ||    0.026877           0.620        26.201       5.917
   23      759.316 ||    0.000373           0.009         0.363       0.082
   24      805.149 ||    0.035523           0.820        34.629       7.821
   25      850.205 ||    0.070026           1.616        68.265      15.418
   26      913.030 ||    0.035089           0.810        34.207       7.726
   27     1012.140 ||    0.012215           0.282        11.908       2.689
   28     1048.275 ||    0.000149           0.003         0.145       0.033
   29     1100.650 ||    0.130433           3.009       127.152      28.717
   30     1120.757 ||    0.267533           6.172       260.804      58.902
   31     1197.872 ||    0.163899           3.781       159.777      36.085
   32     1199.900 ||    0.136089           3.140       132.666      29.962
   33     1291.533 ||    0.252340           5.822       245.993      55.557
   34     1350.856 ||    0.054638           1.261        53.264      12.030
   35     1401.303 ||    0.012681           0.293        12.362       2.792
   36     1425.208 ||    0.044600           1.029        43.478       9.819
   37     1469.310 ||    0.007734           0.178         7.540       1.703
   38     1480.426 ||    0.002407           0.056         2.347       0.530
   39     1699.415 ||    0.365520           8.433       356.327      80.476
   40     1736.440 ||    0.145552           3.358       141.891      32.046
   41     3055.386 ||    0.012128           0.280        11.823       2.670
   42     3135.350 ||    0.005147           0.119         5.018       1.133
   43     3191.671 ||    0.004825           0.111         4.703       1.062
   44     3257.510 ||    0.001463           0.034         1.426       0.322
   45     3788.769 ||    0.106994           2.468       104.303      23.557
 ----------------------------------------------------------------------------

 Total times  cpu:   118761.4s     wall:   119130.5s
