============================== echo of input deck ==============================
echo
start 2R2
title "Me,H,Me Ref 2"
charge 0

geometry
 zmatrix
  O
  C  1  R1
  C  2  R2  1  A1
  H  1  R5  2  A4  3  D180
  C  2  R6  3  A5  4  D180
  H  3  R7  2  A6  1  D180
  H  3  R8  2  A7  1  D0
  H  5  R9  2  A8  1  D1
  H  5  R10 2  A9  1  D2
  H  5  R11 2  A10 1  D3
  variables
    R1  1.329
    R2  1.363
    A1  124.5
    R3  1.440
    A2  119.5
    R4  1.249
    A3  123.5
    R5  0.994
    A4  105.4
    R6  1.485
    A5  122.5
    R7  1.078
    A6  120.0
    R8  1.099
    A7  117.6
    R9  1.100
    A8  110.0
    D1  180.0
    R10 1.100
    A9  110.0
    D2  60.00
    R11 1.100
    A10 110.0
    D3  -60.0
    R12 1.100
    A11 110.0
    D4  0.000
    R13 1.100
    A12 110.0
    D5  120.0
    R14 1.100
    A13 110.0
    D6  -120.
  constants
    D0  0.000
    D180 180.0
 end
end

basis spherical
 * library aug-cc-pVDZ
end

set lindep:n_dep 0

set cphf:maxsub 95
set cphf:maxiter 999
set int:acc_std 1d-16
set fock:densityscreen f

scf
 maxiter 99
 vectors input atomic
 thresh 1d-9
 tol2e 1d-15
end

mp2
 freeze atomic
 tight
end

driver
 clear
 maxiter 99
 tight
end

set "mp2:aotol2e fock" 1d-15
set mp2:aotol2e 1d-15
set mp2:backtol 1d-15

task mp2 optimize
task mp2 frequencies

================================================================================

         Total SCF energy =   -191.955166296444
          Total MP2 energy          -192.587677886181
@ Step       Energy      Delta E   Gmax     Grms     Xrms     Xmax   Walltime
@ ---- ---------------- -------- -------- -------- -------- -------- --------
@    0    -192.58767789  0.0D+00  0.04841  0.01311  0.00000  0.00000     45.3
         Total SCF energy =   -191.956144656555
          Total MP2 energy          -192.588958900948
         Total SCF energy =   -191.959730637195
          Total MP2 energy          -192.592144265825
@    1    -192.59214427 -4.5D-03  0.01562  0.00505  0.08799  0.29882    108.7
         Total SCF energy =   -191.960797285174
          Total MP2 energy          -192.592823296756
         Total SCF energy =   -191.961447447861
          Total MP2 energy          -192.593563017114
@    2    -192.59356302 -1.4D-03  0.00482  0.00166  0.03805  0.11333    169.5
         Total SCF energy =   -191.961408057293
          Total MP2 energy          -192.593723500354
         Total SCF energy =   -191.961469467839
          Total MP2 energy          -192.593736832423
@    3    -192.59373683 -1.7D-04  0.00118  0.00049  0.01026  0.01972    228.5
         Total SCF energy =   -191.961356134768
          Total MP2 energy          -192.593742553023
         Total SCF energy =   -191.961426905794
          Total MP2 energy          -192.593756919701
@    4    -192.59375692 -2.0D-05  0.00078  0.00028  0.00355  0.00669    286.8
         Total SCF energy =   -191.961379431744
          Total MP2 energy          -192.593760598641
         Total SCF energy =   -191.961379431744
          Total MP2 energy          -192.593760598641
@    5    -192.59376060 -3.7D-06  0.00022  0.00007  0.00149  0.00440    327.6
         Total SCF energy =   -191.961369809228
          Total MP2 energy          -192.593760846776
         Total SCF energy =   -191.961369809228
          Total MP2 energy          -192.593760846776
@    6    -192.59376085 -2.5D-07  0.00003  0.00001  0.00040  0.00124    369.1
         Total SCF energy =   -191.961372095090

 Vector   25  Occ=0.000000D+00  E= 1.400357D-01  Symmetry=a'

 Vector   26  Occ=0.000000D+00  E= 1.436738D-01  Symmetry=a"

 Vector   27  Occ=0.000000D+00  E= 1.494720D-01  Symmetry=a'

 Vector   28  Occ=0.000000D+00  E= 1.587578D-01  Symmetry=a'

 Vector   29  Occ=0.000000D+00  E= 1.675054D-01  Symmetry=a'

 Vector   30  Occ=0.000000D+00  E= 1.746012D-01  Symmetry=a"

 Vector   31  Occ=0.000000D+00  E= 1.797526D-01  Symmetry=a'

 Vector   32  Occ=0.000000D+00  E= 1.938827D-01  Symmetry=a'

 Vector   33  Occ=0.000000D+00  E= 1.999733D-01  Symmetry=a"

 Vector   34  Occ=0.000000D+00  E= 2.209329D-01  Symmetry=a'

 Vector   35  Occ=0.000000D+00  E= 2.344486D-01  Symmetry=a'

 Vector   36  Occ=0.000000D+00  E= 2.588789D-01  Symmetry=a'

 Vector   37  Occ=0.000000D+00  E= 2.831205D-01  Symmetry=a"

 Vector   38  Occ=0.000000D+00  E= 2.871629D-01  Symmetry=a'

 Vector   39  Occ=0.000000D+00  E= 2.934371D-01  Symmetry=a"

 Vector   40  Occ=0.000000D+00  E= 3.015656D-01  Symmetry=a'

 Vector   41  Occ=0.000000D+00  E= 3.287714D-01  Symmetry=a'

 Vector   42  Occ=0.000000D+00  E= 3.465537D-01  Symmetry=a"

 Vector   43  Occ=0.000000D+00  E= 3.470750D-01  Symmetry=a'

 Vector   44  Occ=0.000000D+00  E= 3.753650D-01  Symmetry=a'

 Vector   45  Occ=0.000000D+00  E= 3.868153D-01  Symmetry=a'

 Vector   46  Occ=0.000000D+00  E= 4.145598D-01  Symmetry=a"

 Vector   47  Occ=0.000000D+00  E= 4.199224D-01  Symmetry=a'

 Vector   48  Occ=0.000000D+00  E= 4.317336D-01  Symmetry=a'

 Vector   49  Occ=0.000000D+00  E= 4.479370D-01  Symmetry=a'

 Vector   50  Occ=0.000000D+00  E= 4.555451D-01  Symmetry=a"

 Vector   51  Occ=0.000000D+00  E= 4.784734D-01  Symmetry=a'

 Vector   52  Occ=0.000000D+00  E= 4.859677D-01  Symmetry=a'

 Vector   53  Occ=0.000000D+00  E= 4.921880D-01  Symmetry=a"

 Vector   54  Occ=0.000000D+00  E= 5.179662D-01  Symmetry=a"

          Total MP2 energy          -192.593760856198
         Total SCF energy =   -191.961372095090
          Total MP2 energy          -192.593760856198
@    7    -192.59376086 -9.4D-09  0.00001  0.00000  0.00006  0.00014    409.7
         Total SCF energy =   -191.961372070482

 Vector    5  Occ=2.000000D+00  E=-1.396321D+00  Symmetry=a'

 Vector    6  Occ=2.000000D+00  E=-1.052331D+00  Symmetry=a'

 Vector    7  Occ=2.000000D+00  E=-9.504089D-01  Symmetry=a'

 Vector    8  Occ=2.000000D+00  E=-7.747276D-01  Symmetry=a'

 Vector    9  Occ=2.000000D+00  E=-6.856504D-01  Symmetry=a'

 Vector   10  Occ=2.000000D+00  E=-6.346707D-01  Symmetry=a'

 Vector   11  Occ=2.000000D+00  E=-6.072075D-01  Symmetry=a"

 Vector   12  Occ=2.000000D+00  E=-5.675161D-01  Symmetry=a'

 Vector   13  Occ=2.000000D+00  E=-5.393617D-01  Symmetry=a'

 Vector   14  Occ=2.000000D+00  E=-5.384255D-01  Symmetry=a"

 Vector   15  Occ=2.000000D+00  E=-5.089775D-01  Symmetry=a'

 Vector   16  Occ=2.000000D+00  E=-3.330110D-01  Symmetry=a"

 Vector   17  Occ=0.000000D+00  E= 3.114437D-02  Symmetry=a'

 Vector   18  Occ=0.000000D+00  E= 4.708040D-02  Symmetry=a'

 Vector   19  Occ=0.000000D+00  E= 5.160944D-02  Symmetry=a'

 Vector   20  Occ=0.000000D+00  E= 5.540264D-02  Symmetry=a"

 Vector   21  Occ=0.000000D+00  E= 6.775736D-02  Symmetry=a'

 Vector   22  Occ=0.000000D+00  E= 7.872944D-02  Symmetry=a'

 Vector   23  Occ=0.000000D+00  E= 1.078410D-01  Symmetry=a'

 Vector   24  Occ=0.000000D+00  E= 1.193697D-01  Symmetry=a"

 Vector   25  Occ=0.000000D+00  E= 1.400356D-01  Symmetry=a'

 Vector   26  Occ=0.000000D+00  E= 1.436739D-01  Symmetry=a"

 Vector   27  Occ=0.000000D+00  E= 1.494719D-01  Symmetry=a'

 Vector   28  Occ=0.000000D+00  E= 1.587579D-01  Symmetry=a'

 Vector   29  Occ=0.000000D+00  E= 1.675056D-01  Symmetry=a'

 Vector   30  Occ=0.000000D+00  E= 1.746009D-01  Symmetry=a"

 Vector   31  Occ=0.000000D+00  E= 1.797527D-01  Symmetry=a'

 Vector   32  Occ=0.000000D+00  E= 1.938830D-01  Symmetry=a'

 Vector   33  Occ=0.000000D+00  E= 1.999726D-01  Symmetry=a"

 Vector   34  Occ=0.000000D+00  E= 2.209330D-01  Symmetry=a'

 Vector   35  Occ=0.000000D+00  E= 2.344482D-01  Symmetry=a'

 Vector   36  Occ=0.000000D+00  E= 2.588787D-01  Symmetry=a'

 Vector   37  Occ=0.000000D+00  E= 2.831207D-01  Symmetry=a"

 Vector   38  Occ=0.000000D+00  E= 2.871628D-01  Symmetry=a'

 Vector   39  Occ=0.000000D+00  E= 2.934372D-01  Symmetry=a"

 Vector   40  Occ=0.000000D+00  E= 3.015643D-01  Symmetry=a'

 Vector   41  Occ=0.000000D+00  E= 3.287718D-01  Symmetry=a'

 Vector   42  Occ=0.000000D+00  E= 3.465532D-01  Symmetry=a"

 Vector   43  Occ=0.000000D+00  E= 3.470757D-01  Symmetry=a'

 Vector   44  Occ=0.000000D+00  E= 3.753661D-01  Symmetry=a'

 Vector   45  Occ=0.000000D+00  E= 3.868158D-01  Symmetry=a'

 Vector   46  Occ=0.000000D+00  E= 4.145592D-01  Symmetry=a"

 Vector   47  Occ=0.000000D+00  E= 4.199224D-01  Symmetry=a'

 Vector   48  Occ=0.000000D+00  E= 4.317343D-01  Symmetry=a'

 Vector   49  Occ=0.000000D+00  E= 4.479375D-01  Symmetry=a'

 Vector   50  Occ=0.000000D+00  E= 4.555452D-01  Symmetry=a"

 Vector   51  Occ=0.000000D+00  E= 4.784729D-01  Symmetry=a'

 Vector   52  Occ=0.000000D+00  E= 4.859665D-01  Symmetry=a'

 Vector   53  Occ=0.000000D+00  E= 4.921885D-01  Symmetry=a"

 Vector   54  Occ=0.000000D+00  E= 5.179663D-01  Symmetry=a"

       Multipole analysis of the density wrt the origin
       ------------------------------------------------

     L   x y z        total         open         nuclear
     -   - - -        -----         ----         -------
     0   0 0 0     -0.000000      0.000000     32.000000

     1   1 0 0      0.439122      0.000000      0.109003
     1   0 1 0     -0.815387      0.000000      0.121060
     1   0 0 1     -0.000000      0.000000      0.000000

     2   2 0 0    -19.313176      0.000000    108.252533
     2   1 1 0      1.232287      0.000000     -6.027931
     2   1 0 1      0.000000      0.000000      0.000000
     2   0 2 0    -16.413543      0.000000    121.938305
     2   0 1 1     -0.000000      0.000000      0.000000

          Total MP2 energy          -192.593760856424
         Total SCF energy =   -191.961372070482
          Total MP2 energy          -192.593760856424
@    8    -192.59376086 -2.3D-10  0.00000  0.00000  0.00001  0.00003    447.1
@    8    -192.59376086 -2.3D-10  0.00000  0.00000  0.00001  0.00003    447.1

 Output coordinates in angstroms (scale by  1.889725989 to convert to a.u.)

  No.       Tag          Charge          X              Y              Z
 ---- ---------------- ---------- -------------- -------------- --------------
    1 O                    8.0000    -1.34797404    -0.23923543     0.00000000
    2 C                    6.0000    -0.00852081     0.11949267     0.00000000
    3 C                    6.0000     0.31361689     1.43051936     0.00000000
    4 H                    1.0000    -1.41279035    -1.20364994     0.00000000
    5 C                    6.0000     0.97510238    -1.01755743     0.00000000
    6 H                    1.0000     1.36100271     1.72927296     0.00000000
    7 H                    1.0000    -0.46408571     2.19551642     0.00000000
    8 H                    1.0000     2.00582205    -0.63771322     0.00000000
    9 H                    1.0000     0.83516743    -1.65010410    -0.89360660
   10 H                    1.0000     0.83516743    -1.65010410     0.89360660

         Total SCF energy =   -191.961372070482
          Total MP2 energy          -192.593760856424
         Total SCF energy =   -191.961393392705
          Total MP2 energy          -192.593760670298
         Total SCF energy =   -191.961350345075
          Total MP2 energy          -192.593760668726
         Total SCF energy =   -191.961347091305
          Total MP2 energy          -192.593760533606
         Total SCF energy =   -191.961396377946
          Total MP2 energy          -192.593760532451
         Total SCF energy =   -191.961372047791
          Total MP2 energy          -192.593760847737
         Total SCF energy =   -191.961372047791
          Total MP2 energy          -192.593760847737
         Total SCF energy =   -191.961361823751
          Total MP2 energy          -192.593760579050
         Total SCF energy =   -191.961381725557
          Total MP2 energy          -192.593760578448
         Total SCF energy =   -191.961399316019
          Total MP2 energy          -192.593760418658
         Total SCF energy =   -191.961343901614
          Total MP2 energy          -192.593760421175
         Total SCF energy =   -191.961371963597
          Total MP2 energy          -192.593760775880
         Total SCF energy =   -191.961371963597
          Total MP2 energy          -192.593760775880
         Total SCF energy =   -191.961366300881
          Total MP2 energy          -192.593760507498
         Total SCF energy =   -191.961377111927
          Total MP2 energy          -192.593760508548
         Total SCF energy =   -191.961346773365
          Total MP2 energy          -192.593760445911
         Total SCF energy =   -191.961396516548
          Total MP2 energy          -192.593760443829
         Total SCF energy =   -191.961372008120
          Total MP2 energy          -192.593760815715
         Total SCF energy =   -191.961372008120
          Total MP2 energy          -192.593760815715
         Total SCF energy =   -191.961370739707
          Total MP2 energy          -192.593760826213
         Total SCF energy =   -191.961373320139
          Total MP2 energy          -192.593760827401
         Total SCF energy =   -191.961398521303
          Total MP2 energy          -192.593760593759
         Total SCF energy =   -191.961345092163
          Total MP2 energy          -192.593760596200
         Total SCF energy =   -191.961372062189
          Total MP2 energy          -192.593760855011
         Total SCF energy =   -191.961372062188
          Total MP2 energy          -192.593760855011
         Total SCF energy =   -191.961375199806
          Total MP2 energy          -192.593760570253
         Total SCF energy =   -191.961368327402
          Total MP2 energy          -192.593760571460
         Total SCF energy =   -191.961369136484
          Total MP2 energy          -192.593760590848
         Total SCF energy =   -191.961374432311
          Total MP2 energy          -192.593760590090
         Total SCF energy =   -191.961371787315
          Total MP2 energy          -192.593760585562
         Total SCF energy =   -191.961371787316
          Total MP2 energy          -192.593760585563
         Total SCF energy =   -191.961363523323
          Total MP2 energy          -192.593760680461
         Total SCF energy =   -191.961380264730
          Total MP2 energy          -192.593760679928
         Total SCF energy =   -191.961370422547
          Total MP2 energy          -192.593760818556
         Total SCF energy =   -191.961373632938
          Total MP2 energy          -192.593760818662
         Total SCF energy =   -191.961372056970
          Total MP2 energy          -192.593760846806
         Total SCF energy =   -191.961372056970
          Total MP2 energy          -192.593760846806
         Total SCF energy =   -191.961378499415
          Total MP2 energy          -192.593760750654
         Total SCF energy =   -191.961365423832
          Total MP2 energy          -192.593760749793
         Total SCF energy =   -191.961365978740
          Total MP2 energy          -192.593760751304
         Total SCF energy =   -191.961377946632
          Total MP2 energy          -192.593760751328
         Total SCF energy =   -191.961372056482
          Total MP2 energy          -192.593760846358
         Total SCF energy =   -191.961372056482
          Total MP2 energy          -192.593760846358
         Total SCF energy =   -191.961363852522
          Total MP2 energy          -192.593760698310
         Total SCF energy =   -191.961379970919
          Total MP2 energy          -192.593760697685
         Total SCF energy =   -191.961369029103
          Total MP2 energy          -192.593760813063
         Total SCF energy =   -191.961375015329
          Total MP2 energy          -192.593760812830
         Total SCF energy =   -191.961372043909
          Total MP2 energy          -192.593760834657
         Total SCF energy =   -191.961372043909
          Total MP2 energy          -192.593760834657
         Total SCF energy =   -191.961372829120
          Total MP2 energy          -192.593760830266
         Total SCF energy =   -191.961371250435
          Total MP2 energy          -192.593760830687
         Total SCF energy =   -191.961376157748
          Total MP2 energy          -192.593760785347
         Total SCF energy =   -191.961367834403
          Total MP2 energy          -192.593760784882
         Total SCF energy =   -191.961365904586
          Total MP2 energy          -192.593760736281
         Total SCF energy =   -191.961377994421
          Total MP2 energy          -192.593760736434
 Zero-Point correction to Energy  =   52.918 kcal/mol  (  0.084330 au)
 Thermal correction to Energy     =   56.100 kcal/mol  (  0.089401 au)
 Thermal correction to Enthalpy   =   56.692 kcal/mol  (  0.090345 au)
 Total Entropy                    =   69.509 cal/mol-K
   - Translational                =   38.079 cal/mol-K (mol. weight =  58.0419)
   - Rotational                   =   24.120 cal/mol-K (symmetry #  =        1)
   - Vibrational                  =    7.310 cal/mol-K
   - Translational                  =    2.979 cal/mol-K
   - Rotational                     =    2.979 cal/mol-K
   - Vibrational                    =   11.438 cal/mol-K
 P.Frequency       -0.00       -0.00       -0.00       -0.00        0.00        0.00
 P.Frequency      207.71      236.69      406.11      459.29      483.55      736.47
 P.Frequency      830.47      856.05      965.80     1014.57     1053.90     1233.53
 P.Frequency     1322.04     1394.00     1434.22     1467.79     1479.38     1737.18
 P.Frequency     3050.98     3127.39     3181.61     3207.75     3320.18     3827.51

 Normal Eigenvalue ||           Projected Infra Red Intensities
  Mode   [cm**-1]  || [atomic units] [(debye/angs)**2] [(KM/mol)] [arbitrary]
 ------ ---------- || -------------- ----------------- ---------- -----------
    1       -0.000 ||    0.000853           0.020         0.831       0.370
    2       -0.000 ||    0.000974           0.022         0.949       0.422
    3       -0.000 ||    0.001064           0.025         1.037       0.462
    4       -0.000 ||    0.000041           0.001         0.040       0.018
    5        0.000 ||    0.000103           0.002         0.100       0.045
    6        0.000 ||    0.002470           0.057         2.408       1.072
    7      207.710 ||    0.013365           0.308        13.029       5.800
    8      236.686 ||    0.071687           1.654        69.884      31.108
    9      406.112 ||    0.000969           0.022         0.945       0.421
   10      459.294 ||    0.003633           0.084         3.542       1.577
   11      483.553 ||    0.008480           0.196         8.267       3.680
   12      736.473 ||    0.012814           0.296        12.491       5.560
   13      830.470 ||    0.059211           1.366        57.722      25.695
   14      856.051 ||    0.023893           0.551        23.292      10.368
   15      965.805 ||    0.037073           0.855        36.141      16.088
   16     1014.575 ||    0.003988           0.092         3.887       1.730
   17     1053.901 ||    0.000193           0.004         0.188       0.084
   18     1233.526 ||    0.031547           0.728        30.754      13.690
   19     1322.043 ||    0.177784           4.102       173.312      77.149
   20     1394.004 ||    0.017270           0.398        16.836       7.494
   21     1434.216 ||    0.020722           0.478        20.201       8.992
   22     1467.790 ||    0.007141           0.165         6.961       3.099
   23     1479.379 ||    0.004271           0.099         4.163       1.853
   24     1737.182 ||    0.077752           1.794        75.797      33.741
   25     3050.975 ||    0.022471           0.518        21.906       9.751
   26     3127.395 ||    0.012732           0.294        12.412       5.525
   27     3181.606 ||    0.010451           0.241        10.188       4.535
   28     3207.754 ||    0.000029           0.001         0.028       0.013
   29     3320.179 ||    0.003798           0.088         3.703       1.648
   30     3827.509 ||    0.064549           1.489        62.925      28.011
 ----------------------------------------------------------------------------

 Total times  cpu:     2745.9s     wall:     2781.6s
