 Gaussian 16, Revision A.03,
 Gaussian 16:  ES64L-G16RevA.03 25-Dec-2016

 -------------------------------------------------------
 # MP2/6-31G** Opt=(Recalc=50) Freq=(vibrot, anharmonic)
 -------------------------------------------------------

 --------
 H,Me,FMe
 --------
 Symbolic Z-matrix:
 Charge =  0 Multiplicity = 1

 SCF Done:  E(RHF) =  -640.274007531     A.U. after   15 cycles
 E2 =    -0.1541221828D+01 EUMP2 =    -0.64181522935902D+03
 E2 =    -0.1541221828D+01 EUMP2 =    -0.64181522935902D+03
 SCF Done:  E(RHF) =  -640.286014256     A.U. after   14 cycles
 E2 =    -0.1538973011D+01 EUMP2 =    -0.64182498726711D+03
 SCF Done:  E(RHF) =  -640.285663422     A.U. after   14 cycles
 E2 =    -0.1539518825D+01 EUMP2 =    -0.64182518224661D+03
 SCF Done:  E(RHF) =  -640.285820875     A.U. after   13 cycles
 E2 =    -0.1539450571D+01 EUMP2 =    -0.64182527144631D+03
 SCF Done:  E(RHF) =  -640.285601315     A.U. after   13 cycles
 E2 =    -0.1539683550D+01 EUMP2 =    -0.64182528486518D+03
 SCF Done:  E(RHF) =  -640.285729562     A.U. after   13 cycles
 E2 =    -0.1539556855D+01 EUMP2 =    -0.64182528641760D+03
 SCF Done:  E(RHF) =  -640.285702139     A.U. after   12 cycles
 E2 =    -0.1539597279D+01 EUMP2 =    -0.64182529941880D+03
 SCF Done:  E(RHF) =  -640.285318946     A.U. after   13 cycles
 E2 =    -0.1539877620D+01 EUMP2 =    -0.64182519656545D+03
 SCF Done:  E(RHF) =  -640.285638250     A.U. after   13 cycles
 E2 =    -0.1539662104D+01 EUMP2 =    -0.64182530035394D+03
 SCF Done:  E(RHF) =  -640.285666986     A.U. after   10 cycles
 E2 =    -0.1539633718D+01 EUMP2 =    -0.64182530070398D+03
 E2 =    -0.1539632399D+01 EUMP2 =    -0.64182530065399D+03
 E2 =    -0.1539635380D+01 EUMP2 =    -0.64182530072198D+03
 Optimization completed.
    -- Stationary point found.

 1\1\GINC-N2297\FOpt\RMP2-FC\6-31G(d,p)\C5H5F3O2\GDS001\27-Oct-2020\0\\
 # MP2/6-31G** Opt=(Recalc=50) Freq=(vibrot, anharmonic)\\H,Me,FMe\\0,1
 \C,-1.1402932288,2.3265813359,-0.0064059405\C,-1.1135049082,0.95628376
 82,-0.0465231979\C,0.1760790267,0.3301615365,0.1214761584\O,-0.0956245
 022,3.1273990108,0.1628143631\O,1.2509340094,0.9457036062,0.2798238712
 \H,-2.0726015853,2.8705539023,-0.1135077928\C,-2.3898206532,0.18493984
 81,-0.2656603244\C,0.2553462134,-1.2035521556,0.1392630903\H,0.6928534
 315,2.5311309657,0.2457489455\H,-3.2387594426,0.8649334385,-0.21471595

 Normal termination of Gaussian 16 at Tue Oct 27 13:25:02 2020.

 ----------------------------------------------------------------------
 #N Geom=AllCheck Guess=TCheck SCRF=Check GenChk RMP2(FC)/6-31G(d,p) Fr
 eq
 ----------------------------------------------------------------------

 Structure from the checkpoint file:  "6.chk"
 --------
 H,Me,FMe
 --------
 Charge =  0 Multiplicity = 1

                         Standard orientation:
 ---------------------------------------------------------------------
 Center     Atomic      Atomic             Coordinates (Angstroms)
 Number     Number       Type             X           Y           Z
 ---------------------------------------------------------------------
      1          6           0       -2.383086    0.291588   -0.015419
      2          6           0       -1.055023    0.631826    0.007564
      3          6           0       -0.109103   -0.458217    0.025506
      4          8           0       -2.877961   -0.939823   -0.013877
      5          8           0       -0.417594   -1.668141    0.039526
      6          1           0       -3.154684    1.053526   -0.041200
      7          6           0       -0.650483    2.083769    0.021060
      8          6           0        1.391810   -0.133712   -0.003349
      9          1           0       -2.094172   -1.547310    0.013426
     10          1           0       -1.527533    2.707006   -0.146399
     11          1           0        0.069896    2.305433   -0.763013
     12          1           0       -0.207994    2.372099    0.972586
     13          9           0        1.711202    0.488354   -1.162891
     14          9           0        2.134799   -1.239089    0.097251
     15          9           0        1.722248    0.693117    1.015334
 ---------------------------------------------------------------------

 E2 =    -0.1539635385D+01 EUMP2 =    -0.64182530072668D+03
 E2 =    -0.1539635385D+01 EUMP2 =    -0.64182530072668D+03

                      1                      2                      3
                      A                      A                      A
 Frequencies --     48.4010                77.7922               162.9538
 Red. masses --      5.7053                10.4706                 1.2295
 Frc consts  --      0.0079                 0.0373                 0.0192
 IR Inten    --      1.0447                 0.1232                 0.0480

                      4                      5                      6
                      A                      A                      A
 Frequencies --    185.4869               242.0373               260.1704
 Red. masses --      6.8857                 4.4982                 7.1039
 Frc consts  --      0.1396                 0.1553                 0.2833
 IR Inten    --      1.7701                 0.7766                 3.8024

                      7                      8                      9
                      A                      A                      A
 Frequencies --    294.6083               317.4367               378.4668
 Red. masses --      4.3081                 4.5254                 2.9107
 Frc consts  --      0.2203                 0.2687                 0.2456
 IR Inten    --      0.8958                 0.5193                 0.3581

                     10                     11                     12
                      A                      A                      A
 Frequencies --    409.2412               447.3610               519.2639
 Red. masses --      7.3037                 9.5304                14.5031
 Frc consts  --      0.7207                 1.1238                 2.3040
 IR Inten    --      0.4517                 1.2499                 3.9184

                     13                     14                     15
                      A                      A                      A
 Frequencies --    566.3918               588.4047               664.4703
 Red. masses --      7.2765                 8.2516                 5.7239
 Frc consts  --      1.3753                 1.6832                 1.4890
 IR Inten    --     28.5151                 2.7362                 8.8069

                     16                     17                     18
                      A                      A                      A
 Frequencies --    760.2475               766.8555               873.7613
 Red. masses --     12.5972                 9.5152                 1.3344
 Frc consts  --      4.2898                 3.2968                 0.6002
 IR Inten    --     10.2956                 3.5871                65.0661

                     19                     20                     21
                      A                      A                      A
 Frequencies --    998.2963              1035.3196              1067.9965
 Red. masses --      1.1966                 3.1513                 1.7949
 Frc consts  --      0.7026                 1.9902                 1.2062
 IR Inten    --     58.1206                82.3886               117.5712

                     22                     23                     24
                      A                      A                      A
 Frequencies --   1100.0783              1219.6030              1261.8383
 Red. masses --      1.3543                12.3452                 3.9903
 Frc consts  --      0.9656                10.8189                 3.7434
 IR Inten    --      1.3769               246.0187               150.4827

                     25                     26                     27
                      A                      A                      A
 Frequencies --   1272.9385              1310.1160              1370.0369
 Red. masses --      8.2764                 2.4979                 2.5329
 Frc consts  --      7.9014                 2.5261                 2.8012
 IR Inten    --     92.8515               282.7948               117.8685

                     28                     29                     30
                      A                      A                      A
 Frequencies --   1434.1172              1476.8056              1492.3749
 Red. masses --      1.8535                 1.4968                 2.7389
 Frc consts  --      2.2460                 1.9234                 3.5940
 IR Inten    --     51.6102                 3.9142                24.1940

                     31                     32                     33
                      A                      A                      A
 Frequencies --   1542.5409              1571.2342              1668.8955
 Red. masses --      1.0483                 1.0801                 3.1595
 Frc consts  --      1.4697                 1.5711                 5.1848
 IR Inten    --      3.2587                18.4286               265.0158

                     34                     35                     36
                      A                      A                      A
 Frequencies --   1735.9980              3139.5038              3230.9896
 Red. masses --      6.9777                 1.0360                 1.1029
 Frc consts  --     12.3897                 6.0161                 6.7833
 IR Inten    --    147.7886                19.4783                 9.2699

                     37                     38                     39
                      A                      A                      A
 Frequencies --   3240.0132              3253.8693              3353.5043
 Red. masses --      1.1024                 1.0917                 1.0693
 Frc consts  --      6.8182                 6.8098                 7.0852
 IR Inten    --      6.1982                34.1704               104.0515

 - Thermochemistry -
 -------------------
 Temperature   298.150 Kelvin.  Pressure   1.00000 Atm.
 Atom     1 has atomic number  6 and mass  12.00000

 Molecular mass:   154.02416 amu.
 Principal axes and moments of inertia in atomic units:
                           1         2         3
     Eigenvalues --   824.003681809.780832297.63768
           X            0.99987  -0.01608   0.00023
           Y            0.01608   0.99987   0.00054
           Z           -0.00024  -0.00054   1.00000
 This molecule is an asymmetric top.
 Rotational symmetry number  1.
 Warning -- assumption of classical behavior for rotation
           may cause significant error
 Rotational temperatures (Kelvin)      0.10511     0.04786     0.03770
 Rotational constants (GHZ):           2.19021     0.99722     0.78548
 Zero-point vibrational energy     271190.0 (Joules/Mol)
                                   64.81596 (Kcal/Mol)
 Warning -- explicit consideration of  14 degrees of freedom as
           vibrations may cause significant error
 Vibrational temperatures:     69.64   111.93   234.45   266.87   348.24
          (Kelvin)            374.33   423.88   456.72   544.53   588.81
                              643.65   747.10   814.91   846.58   956.02
                             1093.83  1103.33  1257.15  1436.33  1489.59
                             1536.61  1582.77  1754.74  1815.50  1831.47
                             1884.96  1971.18  2063.37  2124.79  2147.19
                             2219.37  2260.66  2401.17  2497.71  4517.05
                             4648.67  4661.66  4681.59  4824.94

 Zero-point correction=                           0.103291 (Hartree/Particle)
 Thermal correction to Energy=                    0.112772
 Thermal correction to Enthalpy=                  0.113716
 Thermal correction to Gibbs Free Energy=         0.067943
 Sum of electronic and zero-point Energies=           -641.722010
 Sum of electronic and thermal Energies=              -641.712529
 Sum of electronic and thermal Enthalpies=            -641.711584
 Sum of electronic and thermal Free Energies=         -641.757358

                     E (Thermal)             CV                S
                      KCal/Mol        Cal/Mol-Kelvin    Cal/Mol-Kelvin
 Total                   70.766             33.597             96.338
 Electronic               0.000              0.000              0.000
 Translational            0.889              2.981             41.006
 Rotational               0.889              2.981             29.617
 Vibrational             68.988             27.636             25.715
 Vibration     1          0.595              1.978              4.882
 Vibration     2          0.599              1.964              3.946
 Vibration     3          0.623              1.888              2.515
 Vibration     4          0.632              1.860              2.272
 Vibration     5          0.658              1.776              1.788
 Vibration     6          0.668              1.746              1.661
 Vibration     7          0.689              1.684              1.447
 Vibration     8          0.704              1.640              1.323
 Vibration     9          0.749              1.516              1.045
 Vibration    10          0.774              1.450              0.929
 Vibration    11          0.806              1.367              0.804
 Vibration    12          0.874              1.207              0.612
 Vibration    13          0.922              1.104              0.511
 Vibration    14          0.946              1.057              0.470

 E2 =    -0.1539633514D+01 EUMP2 =    -0.64182530069744D+03
 E2 =    -0.1539633514D+01 EUMP2 =    -0.64182530069744D+03
 E2 =    -0.1539637463D+01 EUMP2 =    -0.64182530072025D+03
 E2 =    -0.1539637463D+01 EUMP2 =    -0.64182530072025D+03
 E2 =    -0.1539634781D+01 EUMP2 =    -0.64182530068766D+03
 SCF Done:  E(RHF) =  -640.285846079     A.U. after    8 cycles
 E2 =    -0.1539450733D+01 EUMP2 =    -0.64182529681276D+03
 E2 =    -0.1539450733D+01 EUMP2 =    -0.64182529681276D+03
 SCF Done:  E(RHF) =  -640.285476008     A.U. after    8 cycles
 E2 =    -0.1539820817D+01 EUMP2 =    -0.64182529682492D+03
 E2 =    -0.1539820817D+01 EUMP2 =    -0.64182529682492D+03
 SCF Done:  E(RHF) =  -640.285739420     A.U. after    9 cycles
 E2 =    -0.1539557320D+01 EUMP2 =    -0.64182529673920D+03
 E2 =    -0.1539557320D+01 EUMP2 =    -0.64182529673920D+03
 SCF Done:  E(RHF) =  -640.285581033     A.U. after    9 cycles
 E2 =    -0.1539715729D+01 EUMP2 =    -0.64182529676241D+03
 E2 =    -0.1539715729D+01 EUMP2 =    -0.64182529676241D+03
 SCF Done:  E(RHF) =  -640.285659581     A.U. after    9 cycles
 E2 =    -0.1539636017D+01 EUMP2 =    -0.64182529559733D+03
 E2 =    -0.1539636017D+01 EUMP2 =    -0.64182529559733D+03
 SCF Done:  E(RHF) =  -640.285655404     A.U. after   10 cycles
 E2 =    -0.1539640119D+01 EUMP2 =    -0.64182529552306D+03
 E2 =    -0.1539640119D+01 EUMP2 =    -0.64182529552306D+03
 SCF Done:  E(RHF) =  -640.285655208     A.U. after   10 cycles
 E2 =    -0.1539638853D+01 EUMP2 =    -0.64182529406166D+03
 E2 =    -0.1539638853D+01 EUMP2 =    -0.64182529406166D+03
 SCF Done:  E(RHF) =  -640.285657925     A.U. after    9 cycles
 E2 =    -0.1539635977D+01 EUMP2 =    -0.64182529390270D+03
 E2 =    -0.1539635977D+01 EUMP2 =    -0.64182529390270D+03
 SCF Done:  E(RHF) =  -640.285636772     A.U. after    9 cycles
 E2 =    -0.1539656711D+01 EUMP2 =    -0.64182529348317D+03
 E2 =    -0.1539656711D+01 EUMP2 =    -0.64182529348317D+03

 Alpha  occ. eigenvalues --  -26.35844 -26.35816 -26.35307 -20.62237 -20.59591
 Alpha  occ. eigenvalues --  -11.53002 -11.38441 -11.35971 -11.25912 -11.24673
 Alpha  occ. eigenvalues --   -1.73513  -1.64274  -1.64139  -1.44747  -1.40710
 Alpha  occ. eigenvalues --   -1.12078  -1.02405  -0.95472  -0.91101  -0.86413
 Alpha  occ. eigenvalues --   -0.82880  -0.82620  -0.76605  -0.71736  -0.71625
 Alpha  occ. eigenvalues --   -0.69276  -0.68443  -0.67122  -0.66823  -0.65585
 Alpha  occ. eigenvalues --   -0.62514  -0.62090  -0.61484  -0.57962  -0.56894
 Alpha  occ. eigenvalues --   -0.55319  -0.55135  -0.45922  -0.36236
 Alpha virt. eigenvalues --    0.06315   0.21376   0.23396   0.26022   0.27941
 Alpha virt. eigenvalues --    0.31165   0.33178   0.36303   0.38955   0.41068
 Alpha virt. eigenvalues --    0.42464   0.42686   0.47541   0.51504   0.57924

 Mulliken charges:
               1
     1  C    0.198173
     2  C   -0.081728
     3  C    0.263834
     4  O   -0.501531
     5  O   -0.484695
     6  H    0.146345
     7  C   -0.378762
     8  C    0.895968
     9  H    0.384602
    10  H    0.121492
    11  H    0.144351
    12  H    0.146111
    13  F   -0.290845
    14  F   -0.270195
    15  F   -0.293120
 Sum of Mulliken charges =  -0.00000

 Dipole moment (field-independent basis, Debye):
    X=             -1.2588    Y=              2.2300    Z=              0.0349  Tot=              2.5610
 Quadrupole moment (field-independent basis, Debye-Ang):
   XX=            -57.9578   YY=            -55.9042   ZZ=            -55.9128
   XY=             -3.2626   XZ=              0.0313   YZ=              0.0143

  Exact polarizability:  75.745  -0.985  65.173   0.646  -0.097  35.659
 Approx polarizability:  59.569   0.378  56.777   0.510  -0.105  36.780

 SCF Done:  E(RHF) =  -640.285677338     A.U. after    9 cycles
 E2 =    -0.1539616142D+01 EUMP2 =    -0.64182529347982D+03
 E2 =    -0.1539616142D+01 EUMP2 =    -0.64182529347982D+03
