============================== echo of input deck ==============================
echo
start 6C
title "MeR,H,Me Chelate"
charge 0

geometry
 zmatrix
  O
  C  1  R1
  C  2  R2  1  A1
  C  3  R3  2  A2  1  D0
  O  4  R4  3  A3  2  D0
  H  1  R5  2  A4  3  D0
  C  2  R6  3  A5  4  D180
  H  3  R7  2  A6  1  D180
  C  4  R8  3  A7  2  D180
  F  7  R9  2  A8  1  D1
  F  7  R10 2  A9  1  D2
  F  7  R11 2  A10 1  D3
  H  9  R12 4  A11 5  D4
  H  9  R13 4  A12 5  D5
  H  9  R14 4  A13 5  D6
  variables
    R1  1.329
    R2  1.363
    A1  124.5
    R3  1.440
    A2  119.5
    R4  1.249
    A3  123.5
    R5  0.994
    A4  105.4
    R6  1.485
    A5  122.5
    R7  1.078
    A6  120.0
    R8  1.499
    A7  117.6
    R9  1.350
    A8  110.0
    D1  180.0
    R10 1.350
    A9  110.0
    D2  60.00
    R11 1.350
    A10 110.0
    D3  -60.0
    R12 1.100
    A11 110.0
    D4  0.000
    R13 1.100
    A12 110.0
    D5  120.0
    R14 1.100
    A13 110.0
    D6  -120.
  constants
    D0  0.000
    D180 180.0
 end
end

basis spherical
 * library aug-cc-pVDZ
end

set lindep:n_dep 0

set cphf:maxsub 95
set cphf:maxiter 999
set int:acc_std 1d-16
set fock:densityscreen f

scf
 maxiter 99
 vectors input atomic
 thresh 1d-9
 tol2e 1d-15
end

mp2
 freeze atomic
 tight
end

driver
 clear
 maxiter 99
 tight
end

set "mp2:aotol2e fock" 1d-15
set mp2:aotol2e 1d-15
set mp2:backtol 1d-15

task mp2 optimize
task mp2 frequencies

================================================================================

         Total SCF energy =   -640.374341347111
          Total MP2 energy          -642.059738845040
@ Step       Energy      Delta E   Gmax     Grms     Xrms     Xmax   Walltime
@ ---- ---------------- -------- -------- -------- -------- -------- --------
@    0    -642.05973885  0.0D+00  0.02376  0.00658  0.00000  0.00000    918.2
         Total SCF energy =   -640.364419849031
          Total MP2 energy          -642.054023052695
         Total SCF energy =   -640.374992767093
          Total MP2 energy          -642.061566203353
@    1    -642.06156620 -1.8D-03  0.01429  0.00390  0.02825  0.11446   2104.9
         Total SCF energy =   -640.371859257715
          Total MP2 energy          -642.061818922720
         Total SCF energy =   -640.373728578395
          Total MP2 energy          -642.062179465585
@    2    -642.06217947 -6.1D-04  0.00476  0.00166  0.02161  0.04840   3232.5
         Total SCF energy =   -640.370674698681
          Total MP2 energy          -642.061482887481
         Total SCF energy =   -640.373208934864
          Total MP2 energy          -642.062347750655
@    3    -642.06234775 -1.7D-04  0.00180  0.00067  0.01285  0.03665   4404.7
         Total SCF energy =   -640.373802583168
          Total MP2 energy          -642.062358122998
         Total SCF energy =   -640.373569107423
          Total MP2 energy          -642.062370174380
@    4    -642.06237017 -2.2D-05  0.00056  0.00026  0.00345  0.00900   5529.0
         Total SCF energy =   -640.373907293202
          Total MP2 energy          -642.062369001312
         Total SCF energy =   -640.373737912514
          Total MP2 energy          -642.062376213429
@    5    -642.06237621 -6.0D-06  0.00031  0.00009  0.00184  0.00653   6644.7
         Total SCF energy =   -640.373753643060
          Total MP2 energy          -642.062375812594
         Total SCF energy =   -640.373745470422
          Total MP2 energy          -642.062376753574
@    6    -642.06237675 -5.4D-07  0.00016  0.00006  0.00054  0.00130   7714.3
         Total SCF energy =   -640.373722346779
          Total MP2 energy          -642.062375834571
         Total SCF energy =   -640.373738761728
          Total MP2 energy          -642.062376999561
@    7    -642.06237700 -2.5D-07  0.00006  0.00003  0.00026  0.00056   8783.8
         Total SCF energy =   -640.373717421946
          Total MP2 energy          -642.062377002514
         Total SCF energy =   -640.373717421946
          Total MP2 energy          -642.062377002514
@    8    -642.06237700 -3.0D-09  0.00006  0.00003  0.00044  0.00124   9737.6
         Total SCF energy =   -640.373726079149
          Total MP2 energy          -642.062377097481
         Total SCF energy =   -640.373726079149
          Total MP2 energy          -642.062377097481
@    9    -642.06237710 -9.5D-08  0.00001  0.00000  0.00022  0.00065  10690.5
         Total SCF energy =   -640.373726038127
          Total MP2 energy          -642.062377097870
         Total SCF energy =   -640.373726038127
          Total MP2 energy          -642.062377097870
@   10    -642.06237710 -3.9D-10  0.00001  0.00000  0.00004  0.00010  11636.5
         Total SCF energy =   -640.373725196174
          Total MP2 energy          -642.062377097771
         Total SCF energy =   -640.373725196174
          Total MP2 energy          -642.062377097771
@   11    -642.06237710  9.9D-11  0.00001  0.00000  0.00005  0.00015  12576.5
         Total SCF energy =   -640.373725638679
          Total MP2 energy          -642.062377097420
         Total SCF energy =   -640.373725638679
          Total MP2 energy          -642.062377097420
@   12    -642.06237710  3.5D-10  0.00001  0.00000  0.00007  0.00019  13522.1
         Total SCF energy =   -640.373724918511
          Total MP2 energy          -642.062377096989
         Total SCF energy =   -640.373724918511
          Total MP2 energy          -642.062377096989
@   13    -642.06237710  4.3D-10  0.00001  0.00000  0.00010  0.00025  14468.1
         Total SCF energy =   -640.373725763001
          Total MP2 energy          -642.062377096090
         Total SCF energy =   -640.373725763001
          Total MP2 energy          -642.062377096090
@   14    -642.06237710  9.0D-10  0.00002  0.00000  0.00013  0.00034  15413.6
         Total SCF energy =   -640.373725283689
          Total MP2 energy          -642.062377098144
         Total SCF energy =   -640.373725283689
          Total MP2 energy          -642.062377098144
@   15    -642.06237710 -2.1D-09  0.00000  0.00000  0.00008  0.00020  16359.2
         Total SCF energy =   -640.373725260471

 Vector   20  Occ=2.000000D+00  E=-8.417293D-01  Symmetry=a'

 Vector   21  Occ=2.000000D+00  E=-8.341218D-01  Symmetry=a"

 Vector   22  Occ=2.000000D+00  E=-8.014341D-01  Symmetry=a'

 Vector   23  Occ=2.000000D+00  E=-7.879251D-01  Symmetry=a'

 Vector   24  Occ=2.000000D+00  E=-7.242140D-01  Symmetry=a'

 Vector   25  Occ=2.000000D+00  E=-7.230688D-01  Symmetry=a"

 Vector   26  Occ=2.000000D+00  E=-7.113078D-01  Symmetry=a'

 Vector   27  Occ=2.000000D+00  E=-6.880911D-01  Symmetry=a'

 Vector   28  Occ=2.000000D+00  E=-6.770455D-01  Symmetry=a"

 Vector   29  Occ=2.000000D+00  E=-6.748807D-01  Symmetry=a'

 Vector   30  Occ=2.000000D+00  E=-6.621533D-01  Symmetry=a"

 Vector   31  Occ=2.000000D+00  E=-6.309545D-01  Symmetry=a'

 Vector   32  Occ=2.000000D+00  E=-6.306523D-01  Symmetry=a"

 Vector   33  Occ=2.000000D+00  E=-6.177119D-01  Symmetry=a'

 Vector   34  Occ=2.000000D+00  E=-6.009728D-01  Symmetry=a"

 Vector   35  Occ=2.000000D+00  E=-5.769546D-01  Symmetry=a'

 Vector   36  Occ=2.000000D+00  E=-5.702067D-01  Symmetry=a'

 Vector   37  Occ=2.000000D+00  E=-5.264799D-01  Symmetry=a"

 Vector   38  Occ=2.000000D+00  E=-4.520783D-01  Symmetry=a'

 Vector   39  Occ=2.000000D+00  E=-3.874168D-01  Symmetry=a"

 Vector   40  Occ=0.000000D+00  E= 2.716248D-02  Symmetry=a'

 Vector   41  Occ=0.000000D+00  E= 4.492767D-02  Symmetry=a'

 Vector   42  Occ=0.000000D+00  E= 4.779020D-02  Symmetry=a"

 Vector   43  Occ=0.000000D+00  E= 5.486825D-02  Symmetry=a'

 Vector   44  Occ=0.000000D+00  E= 5.520663D-02  Symmetry=a"

 Vector   45  Occ=0.000000D+00  E= 7.064712D-02  Symmetry=a'

 Vector   46  Occ=0.000000D+00  E= 8.093094D-02  Symmetry=a'

 Vector   47  Occ=0.000000D+00  E= 9.342222D-02  Symmetry=a'

 Vector   48  Occ=0.000000D+00  E= 1.036964D-01  Symmetry=a"

 Vector   49  Occ=0.000000D+00  E= 1.156173D-01  Symmetry=a'

 Vector   50  Occ=0.000000D+00  E= 1.160343D-01  Symmetry=a"

 Vector   51  Occ=0.000000D+00  E= 1.211640D-01  Symmetry=a'

 Vector   52  Occ=0.000000D+00  E= 1.416724D-01  Symmetry=a'

 Vector   53  Occ=0.000000D+00  E= 1.500925D-01  Symmetry=a"

 Vector   54  Occ=0.000000D+00  E= 1.524820D-01  Symmetry=a'

 Vector   55  Occ=0.000000D+00  E= 1.566697D-01  Symmetry=a'

 Vector   56  Occ=0.000000D+00  E= 1.607121D-01  Symmetry=a"

 Vector   57  Occ=0.000000D+00  E= 1.648225D-01  Symmetry=a'

 Vector   58  Occ=0.000000D+00  E= 1.782762D-01  Symmetry=a"

 Vector   59  Occ=0.000000D+00  E= 1.796509D-01  Symmetry=a'

 Vector   60  Occ=0.000000D+00  E= 1.821898D-01  Symmetry=a'

 Vector   61  Occ=0.000000D+00  E= 2.070455D-01  Symmetry=a"

 Vector   62  Occ=0.000000D+00  E= 2.114594D-01  Symmetry=a'

 Vector   63  Occ=0.000000D+00  E= 2.242399D-01  Symmetry=a'

 Vector   64  Occ=0.000000D+00  E= 2.402298D-01  Symmetry=a'

 Vector   65  Occ=0.000000D+00  E= 2.439630D-01  Symmetry=a'

 Vector   66  Occ=0.000000D+00  E= 2.515030D-01  Symmetry=a'

 Vector   67  Occ=0.000000D+00  E= 2.520373D-01  Symmetry=a"

 Vector   68  Occ=0.000000D+00  E= 2.674142D-01  Symmetry=a'

 Vector   69  Occ=0.000000D+00  E= 2.798775D-01  Symmetry=a"

 Vector   70  Occ=0.000000D+00  E= 2.893620D-01  Symmetry=a'

 Vector   71  Occ=0.000000D+00  E= 2.944839D-01  Symmetry=a'

 Vector   72  Occ=0.000000D+00  E= 3.009363D-01  Symmetry=a"

 Vector   73  Occ=0.000000D+00  E= 3.096634D-01  Symmetry=a'

 Vector   74  Occ=0.000000D+00  E= 3.185800D-01  Symmetry=a'

 Vector   75  Occ=0.000000D+00  E= 3.309200D-01  Symmetry=a"

 Vector   76  Occ=0.000000D+00  E= 3.404518D-01  Symmetry=a'

 Vector   77  Occ=0.000000D+00  E= 3.447652D-01  Symmetry=a'

 Vector   78  Occ=0.000000D+00  E= 3.455460D-01  Symmetry=a"

 Vector   79  Occ=0.000000D+00  E= 3.597930D-01  Symmetry=a'

 Vector   80  Occ=0.000000D+00  E= 3.622149D-01  Symmetry=a"

 Vector   81  Occ=0.000000D+00  E= 3.650747D-01  Symmetry=a'

 Vector   82  Occ=0.000000D+00  E= 3.795357D-01  Symmetry=a'

 Vector   83  Occ=0.000000D+00  E= 3.817520D-01  Symmetry=a'

 Vector   84  Occ=0.000000D+00  E= 3.844799D-01  Symmetry=a"

 Vector   85  Occ=0.000000D+00  E= 3.941305D-01  Symmetry=a'

 Vector   86  Occ=0.000000D+00  E= 3.978407D-01  Symmetry=a"

 Vector   87  Occ=0.000000D+00  E= 4.126904D-01  Symmetry=a'

 Vector   88  Occ=0.000000D+00  E= 4.189619D-01  Symmetry=a'

 Vector   89  Occ=0.000000D+00  E= 4.199767D-01  Symmetry=a"

 Vector   90  Occ=0.000000D+00  E= 4.275151D-01  Symmetry=a'

 Vector   91  Occ=0.000000D+00  E= 4.321951D-01  Symmetry=a'

 Vector   92  Occ=0.000000D+00  E= 4.463710D-01  Symmetry=a"

 Vector   93  Occ=0.000000D+00  E= 4.525851D-01  Symmetry=a'

 Vector   94  Occ=0.000000D+00  E= 4.693295D-01  Symmetry=a'

 Vector   95  Occ=0.000000D+00  E= 4.751032D-01  Symmetry=a'

 Vector   96  Occ=0.000000D+00  E= 4.779749D-01  Symmetry=a"

 Vector   97  Occ=0.000000D+00  E= 4.850543D-01  Symmetry=a"

 Vector   98  Occ=0.000000D+00  E= 4.877966D-01  Symmetry=a'

 Vector   99  Occ=0.000000D+00  E= 5.016431D-01  Symmetry=a'

       Multipole analysis of the density wrt the origin
       ------------------------------------------------

     L   x y z        total         open         nuclear
     -   - - -        -----         ----         -------
     0   0 0 0     -0.000000      0.000000     78.000000

     1   1 0 0      1.219125      0.000000     -0.639766
     1   0 1 0      0.997110      0.000000     -2.301070
     1   0 0 1      0.000000      0.000000      0.000000

     2   2 0 0    -42.986649      0.000000    269.790313
     2   1 1 0      4.931947      0.000000     27.348785
     2   1 0 1      0.000000      0.000000      0.000000
     2   0 2 0    -42.355640      0.000000   1176.641529
     2   0 1 1      0.000000      0.000000      0.000000

          Total MP2 energy          -642.062377098103
         Total SCF energy =   -640.373725260471
          Total MP2 energy          -642.062377098103
@   16    -642.06237710  4.1D-11  0.00000  0.00000  0.00000  0.00001  17275.2
@   16    -642.06237710  4.1D-11  0.00000  0.00000  0.00000  0.00001  17275.2

 Output coordinates in angstroms (scale by  1.889725989 to convert to a.u.)

  No.       Tag          Charge          X              Y              Z
 ---- ---------------- ---------- -------------- -------------- --------------
    1 O                    8.0000    -1.60823711    -0.09900477     0.00000000
    2 C                    6.0000    -0.28344926    -0.23129580     0.00000000
    3 C                    6.0000     0.61241328     0.80634731     0.00000000
    4 C                    6.0000     0.10641799     2.17950537     0.00000000
    5 O                    8.0000    -1.12709652     2.41078729     0.00000000
    6 H                    1.0000    -1.75961569     0.89513461     0.00000000
    7 C                    6.0000     0.14313518    -1.68626899     0.00000000
    8 H                    1.0000     1.68180392     0.60071544     0.00000000
    9 C                    6.0000     1.10578281     3.30982866     0.00000000
   10 F                    9.0000     1.49175285    -1.81314995     0.00000000
   11 F                    9.0000    -0.33315329    -2.32747770    -1.09288424
   12 F                    9.0000    -0.33315329    -2.32747770     1.09288424
   13 H                    1.0000     0.58075915     4.27300810     0.00000000
   14 H                    1.0000     1.75317795     3.23172832     0.88856159
   15 H                    1.0000     1.75317795     3.23172832    -0.88856159

         Total SCF energy =   -640.373725260471
          Total MP2 energy          -642.062377098103
         Total SCF energy =   -640.373752522437
          Total MP2 energy          -642.062376852073
         Total SCF energy =   -640.373697505454
          Total MP2 energy          -642.062376852910
         Total SCF energy =   -640.373750948853
          Total MP2 energy          -642.062376853680
         Total SCF energy =   -640.373699051744
          Total MP2 energy          -642.062376854417
         Total SCF energy =   -640.373725218938
          Total MP2 energy          -642.062377072420
         Total SCF energy =   -640.373725218938
          Total MP2 energy          -642.062377072419
         Total SCF energy =   -640.373725229092
          Total MP2 energy          -642.062377080719
         Total SCF energy =   -640.373725229092
          Total MP2 energy          -642.062377080718
         Total SCF energy =   -640.373724046964
          Total MP2 energy          -642.062377049692
         Total SCF energy =   -640.373726354498
          Total MP2 energy          -642.062377050511
         Total SCF energy =   -640.373696197583
          Total MP2 energy          -642.062376939917
         Total SCF energy =   -640.373754007926
          Total MP2 energy          -642.062376938612
         Total SCF energy =   -640.373725237832
          Total MP2 energy          -642.062377082117
         Total SCF energy =   -640.373725237831
          Total MP2 energy          -642.062377082117
         Total SCF energy =   -640.373732368293
          Total MP2 energy          -642.062376835249
         Total SCF energy =   -640.373717576258
          Total MP2 energy          -642.062376835340
         Total SCF energy =   -640.373696858788
          Total MP2 energy          -642.062376794656
         Total SCF energy =   -640.373752964503
          Total MP2 energy          -642.062376794742
         Total SCF energy =   -640.373725000738
          Total MP2 energy          -642.062376862067
         Total SCF energy =   -640.373725000738
          Total MP2 energy          -642.062376862067
         Total SCF energy =   -640.373714852388
          Total MP2 energy          -642.062376914899
         Total SCF energy =   -640.373735300273
          Total MP2 energy          -642.062376914490
         Total SCF energy =   -640.373727810907
          Total MP2 energy          -642.062377065457
         Total SCF energy =   -640.373722630924
          Total MP2 energy          -642.062377065539
         Total SCF energy =   -640.373725245821
          Total MP2 energy          -642.062377087524
         Total SCF energy =   -640.373725245820
          Total MP2 energy          -642.062377087523
         Total SCF energy =   -640.373725613110
          Total MP2 energy          -642.062376825786
         Total SCF energy =   -640.373724324374
          Total MP2 energy          -642.062376825823
         Total SCF energy =   -640.373728379031
          Total MP2 energy          -642.062376819460
         Total SCF energy =   -640.373721536806
          Total MP2 energy          -642.062376819348
         Total SCF energy =   -640.373724981768
          Total MP2 energy          -642.062376831927
         Total SCF energy =   -640.373724981768
          Total MP2 energy          -642.062376831926
         Total SCF energy =   -640.373690471410
          Total MP2 energy          -642.062376909553
         Total SCF energy =   -640.373759666374
          Total MP2 energy          -642.062376909235
         Total SCF energy =   -640.373726210567
          Total MP2 energy          -642.062377058483
         Total SCF energy =   -640.373724211582
          Total MP2 energy          -642.062377058589
         Total SCF energy =   -640.373725214588
          Total MP2 energy          -642.062377061102
         Total SCF energy =   -640.373725214587
          Total MP2 energy          -642.062377061101
         Total SCF energy =   -640.373738573343
          Total MP2 energy          -642.062377041887
         Total SCF energy =   -640.373711818439
          Total MP2 energy          -642.062377041829
         Total SCF energy =   -640.373741011625
          Total MP2 energy          -642.062377029428
         Total SCF energy =   -640.373709355829
          Total MP2 energy          -642.062377029443
         Total SCF energy =   -640.373696408070
          Total MP2 energy          -642.062376961416
         Total SCF energy =   -640.373753829485
          Total MP2 energy          -642.062376961278
         Total SCF energy =   -640.373729312483
          Total MP2 energy          -642.062377038208
         Total SCF energy =   -640.373721080516
          Total MP2 energy          -642.062377038234
         Total SCF energy =   -640.373717531318
          Total MP2 energy          -642.062376954956
         Total SCF energy =   -640.373732700554
          Total MP2 energy          -642.062376954700
         Total SCF energy =   -640.373725233237
          Total MP2 energy          -642.062377075632
         Total SCF energy =   -640.373725233236
          Total MP2 energy          -642.062377075632
         Total SCF energy =   -640.373720369218
          Total MP2 energy          -642.062377024312
         Total SCF energy =   -640.373729997830
          Total MP2 energy          -642.062377024301
         Total SCF energy =   -640.373725540962
          Total MP2 energy          -642.062377074584
         Total SCF energy =   -640.373724922897
          Total MP2 energy          -642.062377074595
         Total SCF energy =   -640.373731169040
          Total MP2 energy          -642.062376978144
         Total SCF energy =   -640.373719109866
          Total MP2 energy          -642.062376978308
 Zero-Point correction to Energy  =   62.554 kcal/mol  (  0.099687 au)
 Thermal correction to Energy     =   68.655 kcal/mol  (  0.109408 au)
 Thermal correction to Enthalpy   =   69.247 kcal/mol  (  0.110352 au)
 Total Entropy                    =   98.335 cal/mol-K
   - Translational                =   40.987 cal/mol-K (mol. weight = 154.0241)
   - Rotational                   =   29.869 cal/mol-K (symmetry #  =        1)
   - Vibrational                  =   27.479 cal/mol-K
   - Translational                  =    2.979 cal/mol-K
   - Rotational                     =    2.979 cal/mol-K
   - Vibrational                    =   28.206 cal/mol-K
 P.Frequency        0.00        0.00        0.00        0.00        0.00        0.00
 P.Frequency       40.09       93.10      121.62      134.26      158.06      282.50
 P.Frequency      295.95      303.74      372.08      422.85      499.74      567.84
 P.Frequency      577.69      592.01      708.69      718.76      796.49      848.83
 P.Frequency      931.16      946.45      993.64     1031.10     1112.09     1158.06
 P.Frequency     1185.46     1228.32     1323.35     1376.32     1415.22     1456.29
 P.Frequency     1466.16     1471.05     1653.14     1704.54     3066.80     3091.03
 P.Frequency     3152.65     3202.56     3278.62

 Normal Eigenvalue ||           Projected Infra Red Intensities
  Mode   [cm**-1]  || [atomic units] [(debye/angs)**2] [(KM/mol)] [arbitrary]
 ------ ---------- || -------------- ----------------- ---------- -----------
    1        0.000 ||    0.000570           0.013         0.555       0.114
    2        0.000 ||    0.000261           0.006         0.255       0.052
    3        0.000 ||    0.001137           0.026         1.109       0.227
    4        0.000 ||    0.000085           0.002         0.083       0.017
    5        0.000 ||    0.000020           0.000         0.019       0.004
    6        0.000 ||    0.000488           0.011         0.476       0.097
    7       40.086 ||    0.000688           0.016         0.670       0.137
    8       93.099 ||    0.000579           0.013         0.564       0.115
    9      121.623 ||    0.001371           0.032         1.336       0.273
   10      134.262 ||    0.000723           0.017         0.705       0.144
   11      158.059 ||    0.003004           0.069         2.928       0.599
   12      282.502 ||    0.001737           0.040         1.693       0.346
   13      295.951 ||    0.000007           0.000         0.006       0.001
   14      303.743 ||    0.001129           0.026         1.101       0.225
   15      372.083 ||    0.003387           0.078         3.302       0.676
   16      422.854 ||    0.000597           0.014         0.582       0.119
   17      499.741 ||    0.001048           0.024         1.021       0.209
   18      567.838 ||    0.034744           0.802        33.870       6.932
   19      577.694 ||    0.018493           0.427        18.028       3.690
   20      592.009 ||    0.000000           0.000         0.000       0.000
   21      708.689 ||    0.007836           0.181         7.639       1.563
   22      718.756 ||    0.001821           0.042         1.775       0.363
   23      796.491 ||    0.039944           0.922        38.939       7.969
   24      848.834 ||    0.017830           0.411        17.382       3.557
   25      931.155 ||    0.004958           0.114         4.833       0.989
   26      946.445 ||    0.052815           1.218        51.487      10.537
   27      993.643 ||    0.009466           0.218         9.228       1.889
   28     1031.099 ||    0.000632           0.015         0.616       0.126
   29     1112.086 ||    0.061189           1.412        59.650      12.208
   30     1158.058 ||    0.281096           6.485       274.027      56.082
   31     1185.463 ||    0.280886           6.480       273.822      56.040
   32     1228.319 ||    0.056898           1.313        55.467      11.352
   33     1323.348 ||    0.414312           9.559       403.892      82.660
   34     1376.318 ||    0.109483           2.526       106.729      21.843
   35     1415.220 ||    0.158326           3.653       154.344      31.588
   36     1456.287 ||    0.020869           0.481        20.344       4.164
   37     1466.162 ||    0.008653           0.200         8.435       1.726
   38     1471.051 ||    0.031646           0.730        30.850       6.314
   39     1653.140 ||    0.052856           1.219        51.527      10.545
   40     1704.538 ||    0.249614           5.759       243.336      49.801
   41     3066.803 ||    0.002710           0.063         2.641       0.541
   42     3091.033 ||    0.309940           7.151       302.144      61.837
   43     3152.649 ||    0.002946           0.068         2.872       0.588
   44     3202.562 ||    0.007444           0.172         7.257       1.485
   45     3278.623 ||    0.001267           0.029         1.235       0.253
 ----------------------------------------------------------------------------

 Total times  cpu:   119578.9s     wall:   120150.7s
