============================== echo of input deck ==============================
echo
start 6R2
title "6 Ref Open"
memory stack 17500 mb heap 1000 mb global 4500 mb noverify
charge 0

geometry noautoz noautosym
O       -1.1539434206      1.4973086710     -0.2101809985
C        0.0849464894      0.9084084110     -0.2101809985
C        1.2224696594      1.6276297710     -0.2101809985
H       -1.8019031275      0.9101363014     -0.6589617003
C        0.0721753994     -0.5983179590     -0.2101809985
H        2.1843281394      1.1202054710     -0.2101809985
H        1.1772419794      2.7169869310     -0.2101809985
F        1.3026273294     -1.1430849690     -0.2101809985
F       -0.5982481906     -1.0752054890     -1.3003286485
F       -0.5982481906     -1.0752054890      0.8799666515
end

set lindep:n_dep 0

set cphf:maxsub 95
set cphf:maxiter 999
set int:acc_std 1d-16
set fock:densityscreen f

scf
 maxiter 99
 vectors input atomic
 thresh 1d-9
 tol2e 1d-15
end

mp2
 freeze atomic
 tight
end

driver
 clear
 maxiter 999
 tight
end

set "mp2:aotol2e fock" 1d-15
set mp2:aotol2e 1d-15
set mp2:backtol 1d-15

basis spherical
 * library aug-cc-pVDZ
end

task mp2 optimize
task mp2 frequencies

================================================================================

         Total SCF energy =   -488.572441857792
          Total MP2 energy          -489.788729068843
@ Step       Energy      Delta E   Gmax     Grms     Xrms     Xmax   Walltime
@ ---- ---------------- -------- -------- -------- -------- -------- --------
@    0    -489.78872907  0.0D+00  0.01009  0.00376  0.00000  0.00000     18.3
         Total SCF energy =   -488.573458815228
          Total MP2 energy          -489.789021240593
         Total SCF energy =   -488.573347447325
          Total MP2 energy          -489.789039401358
@    1    -489.78903940 -3.1D-04  0.00225  0.00082  0.00691  0.02437     40.4
         Total SCF energy =   -488.573312269291
          Total MP2 energy          -489.789106233813
         Total SCF energy =   -488.573267446431
          Total MP2 energy          -489.789113547443
@    2    -489.78911355 -7.4D-05  0.00167  0.00078  0.00708  0.02113     62.5
         Total SCF energy =   -488.573306299311
          Total MP2 energy          -489.789178051644
         Total SCF energy =   -488.573283212081
          Total MP2 energy          -489.789202848311
@    3    -489.78920285 -8.9D-05  0.00276  0.00098  0.01250  0.04508     85.0
         Total SCF energy =   -488.573364903186
          Total MP2 energy          -489.789278545463
         Total SCF energy =   -488.573360707313
          Total MP2 energy          -489.789287865281
@    4    -489.78928787 -8.5D-05  0.00228  0.00103  0.01384  0.04548    107.1
         Total SCF energy =   -488.573285503849
          Total MP2 energy          -489.789344479651
         Total SCF energy =   -488.573199321449
          Total MP2 energy          -489.789353932766
@    5    -489.78935393 -6.6D-05  0.00181  0.00069  0.01201  0.03226    129.2
         Total SCF energy =   -488.573329504663
          Total MP2 energy          -489.789388879657
         Total SCF energy =   -488.573362079976
          Total MP2 energy          -489.789392117701
@    6    -489.78939212 -3.8D-05  0.00210  0.00071  0.00910  0.02825    152.8
         Total SCF energy =   -488.573337698298
          Total MP2 energy          -489.789420641026
         Total SCF energy =   -488.573278995646
          Total MP2 energy          -489.789426636525
@    7    -489.78942664 -3.5D-05  0.00134  0.00056  0.01272  0.04173    176.0
         Total SCF energy =   -488.573434431359
          Total MP2 energy          -489.789439576402
         Total SCF energy =   -488.573434431359
          Total MP2 energy          -489.789439576402
@    8    -489.78943958 -1.3D-05  0.00078  0.00036  0.00317  0.00760    192.7
         Total SCF energy =   -488.573339254856
          Total MP2 energy          -489.789448377214
         Total SCF energy =   -488.573281370224
          Total MP2 energy          -489.789449533248
@    9    -489.78944953 -1.0D-05  0.00077  0.00031  0.00630  0.01874    215.5
         Total SCF energy =   -488.573294706903
          Total MP2 energy          -489.789456791669
         Total SCF energy =   -488.573303689077
          Total MP2 energy          -489.789461680012
@   10    -489.78946168 -1.2D-05  0.00103  0.00044  0.00761  0.01634    238.7
         Total SCF energy =   -488.573361896071
          Total MP2 energy          -489.789470873046
         Total SCF energy =   -488.573415092410
          Total MP2 energy          -489.789474565069
@   11    -489.78947457 -1.3D-05  0.00051  0.00026  0.00737  0.01746    261.8
         Total SCF energy =   -488.573378024666
          Total MP2 energy          -489.789479944255
         Total SCF energy =   -488.573313326967
          Total MP2 energy          -489.789482899924
@   12    -489.78948290 -8.3D-06  0.00049  0.00024  0.00663  0.01568    285.4
         Total SCF energy =   -488.573331071747
          Total MP2 energy          -489.789486721280
         Total SCF energy =   -488.573368035643
          Total MP2 energy          -489.789491504632
@   13    -489.78949150 -8.6D-06  0.00097  0.00038  0.00753  0.02131    307.9
         Total SCF energy =   -488.573359464536
          Total MP2 energy          -489.789498420026
         Total SCF energy =   -488.573286841551
          Total MP2 energy          -489.789507661043
@   14    -489.78950766 -1.6D-05  0.00070  0.00029  0.01696  0.03922    331.7
         Total SCF energy =   -488.573355795861
          Total MP2 energy          -489.789513812338
         Total SCF energy =   -488.573412145744
          Total MP2 energy          -489.789515783831
@   15    -489.78951578 -8.1D-06  0.00053  0.00022  0.00834  0.02520    355.9
         Total SCF energy =   -488.573428057593
          Total MP2 energy          -489.789520433280
         Total SCF energy =   -488.573437623223
          Total MP2 energy          -489.789524376996
@   16    -489.78952438 -8.6D-06  0.00053  0.00023  0.01152  0.03775    379.7
         Total SCF energy =   -488.573454730205
          Total MP2 energy          -489.789528798339
         Total SCF energy =   -488.573464110739
          Total MP2 energy          -489.789529833800
@   17    -489.78952983 -5.5D-06  0.00029  0.00011  0.00372  0.01125    403.1
         Total SCF energy =   -488.573419147422
          Total MP2 energy          -489.789530371143
         Total SCF energy =   -488.573419147422
          Total MP2 energy          -489.789530371143
@   18    -489.78953037 -5.4D-07  0.00014  0.00005  0.00160  0.00527    419.9
         Total SCF energy =   -488.573426952270
          Total MP2 energy          -489.789530520241
         Total SCF energy =   -488.573426952270
          Total MP2 energy          -489.789530520241
@   19    -489.78953052 -1.5D-07  0.00007  0.00002  0.00118  0.00299    436.0

 Vector   49  Occ=0.000000D+00  E= 2.849838D-01

 Vector   50  Occ=0.000000D+00  E= 2.904731D-01

 Vector   51  Occ=0.000000D+00  E= 3.052474D-01

 Vector   52  Occ=0.000000D+00  E= 3.146423D-01

 Vector   53  Occ=0.000000D+00  E= 3.356726D-01

 Vector   54  Occ=0.000000D+00  E= 3.487995D-01

 Vector   55  Occ=0.000000D+00  E= 3.570389D-01

 Vector   56  Occ=0.000000D+00  E= 3.639895D-01

 Vector   57  Occ=0.000000D+00  E= 3.769500D-01

 Vector   58  Occ=0.000000D+00  E= 3.833893D-01

 Vector   59  Occ=0.000000D+00  E= 3.891705D-01

 Vector   60  Occ=0.000000D+00  E= 3.932538D-01

 Vector   61  Occ=0.000000D+00  E= 4.093131D-01

 Vector   62  Occ=0.000000D+00  E= 4.161766D-01

 Vector   63  Occ=0.000000D+00  E= 4.209596D-01

 Vector   64  Occ=0.000000D+00  E= 4.328436D-01

 Vector   65  Occ=0.000000D+00  E= 4.419404D-01

 Vector   66  Occ=0.000000D+00  E= 4.641994D-01

 Vector   67  Occ=0.000000D+00  E= 4.897285D-01

 Vector   68  Occ=0.000000D+00  E= 4.948851D-01

 Vector   69  Occ=0.000000D+00  E= 5.030122D-01

 Vector   11  Occ=2.000000D+00  E=-1.431287D+00

 Vector   12  Occ=2.000000D+00  E=-1.092277D+00

 Vector   13  Occ=2.000000D+00  E=-9.883643D-01

 Vector   14  Occ=2.000000D+00  E=-8.719935D-01

 Vector   15  Occ=2.000000D+00  E=-8.322388D-01

 Vector   16  Occ=2.000000D+00  E=-8.304162D-01

 Vector   17  Occ=2.000000D+00  E=-8.037690D-01

 Vector   18  Occ=2.000000D+00  E=-7.235661D-01

 Vector   19  Occ=2.000000D+00  E=-7.208210D-01

 Vector   20  Occ=2.000000D+00  E=-6.876976D-01

 Vector   21  Occ=2.000000D+00  E=-6.801878D-01

 Vector   22  Occ=2.000000D+00  E=-6.737891D-01

 Vector   23  Occ=2.000000D+00  E=-6.613586D-01

 Vector   24  Occ=2.000000D+00  E=-6.461433D-01

 Vector   25  Occ=2.000000D+00  E=-6.157915D-01

 Vector   26  Occ=2.000000D+00  E=-5.846387D-01

 Vector   27  Occ=2.000000D+00  E=-5.489552D-01

 Vector   28  Occ=2.000000D+00  E=-3.830862D-01

 Vector   29  Occ=0.000000D+00  E= 3.587987D-02

 Vector   30  Occ=0.000000D+00  E= 4.593047D-02

 Vector   31  Occ=0.000000D+00  E= 5.542074D-02

 Vector   32  Occ=0.000000D+00  E= 8.506739D-02

 Vector   33  Occ=0.000000D+00  E= 9.146843D-02

 Vector   34  Occ=0.000000D+00  E= 1.045456D-01

 Vector   35  Occ=0.000000D+00  E= 1.065284D-01

 Vector   36  Occ=0.000000D+00  E= 1.269296D-01

 Vector   37  Occ=0.000000D+00  E= 1.387272D-01

 Vector   38  Occ=0.000000D+00  E= 1.454259D-01

 Vector   39  Occ=0.000000D+00  E= 1.556167D-01

 Vector   40  Occ=0.000000D+00  E= 1.658234D-01

 Vector   41  Occ=0.000000D+00  E= 1.694342D-01

 Vector   42  Occ=0.000000D+00  E= 1.824397D-01

 Vector   43  Occ=0.000000D+00  E= 2.018340D-01

 Vector   44  Occ=0.000000D+00  E= 2.199247D-01

 Vector   45  Occ=0.000000D+00  E= 2.373635D-01

 Vector   46  Occ=0.000000D+00  E= 2.486234D-01

 Vector   47  Occ=0.000000D+00  E= 2.646509D-01

 Vector   48  Occ=0.000000D+00  E= 2.788461D-01

 Vector   49  Occ=0.000000D+00  E= 2.849835D-01

 Vector   50  Occ=0.000000D+00  E= 2.904738D-01

 Vector   51  Occ=0.000000D+00  E= 3.052470D-01

 Vector   52  Occ=0.000000D+00  E= 3.146437D-01

 Vector   53  Occ=0.000000D+00  E= 3.356729D-01

 Vector   54  Occ=0.000000D+00  E= 3.488008D-01

 Vector   55  Occ=0.000000D+00  E= 3.570396D-01

 Vector   56  Occ=0.000000D+00  E= 3.639906D-01

 Vector   57  Occ=0.000000D+00  E= 3.769503D-01

 Vector   58  Occ=0.000000D+00  E= 3.833893D-01

 Vector   59  Occ=0.000000D+00  E= 3.891708D-01

 Vector   60  Occ=0.000000D+00  E= 3.932547D-01

 Vector   61  Occ=0.000000D+00  E= 4.093137D-01

 Vector   62  Occ=0.000000D+00  E= 4.161770D-01

 Vector   63  Occ=0.000000D+00  E= 4.209597D-01

 Vector   64  Occ=0.000000D+00  E= 4.328447D-01

 Vector   65  Occ=0.000000D+00  E= 4.419422D-01

 Vector   66  Occ=0.000000D+00  E= 4.642012D-01

 Vector   67  Occ=0.000000D+00  E= 4.897288D-01

 Vector   68  Occ=0.000000D+00  E= 4.948856D-01

 Vector   69  Occ=0.000000D+00  E= 5.030131D-01

       Multipole analysis of the density wrt the origin
       ------------------------------------------------

     L   x y z        total         open         nuclear
     -   - - -        -----         ----         -------
     0   0 0 0     -0.000000      0.000000     56.000000

     1   1 0 0      0.094159      0.000000     -0.237433
     1   0 1 0      0.363669      0.000000      0.430351
     1   0 0 1     -0.206119      0.000000     -1.502581

     2   2 0 0    -26.134685      0.000000    180.972558
     2   1 1 0      1.972123      0.000000      2.658196
     2   1 0 1      1.295504      0.000000      8.723554
     2   0 2 0    -30.098201      0.000000    295.409731
     2   0 1 1     -0.214232      0.000000     -3.682353

 Output coordinates in angstroms (scale by  1.889725989 to convert to a.u.)

  No.       Tag          Charge          X              Y              Z
 ---- ---------------- ---------- -------------- -------------- --------------
    1 O                    8.0000    -1.18023981     1.52364074    -0.09405221
    2 C                    6.0000     0.05958165     0.93734055    -0.03978078
    3 C                    6.0000     1.19607685     1.65299140     0.04253429
    4 H                    1.0000    -1.81567641     0.89653139    -0.47205273
    5 C                    6.0000     0.03945743    -0.56964505     0.00277127
    6 H                    1.0000     2.15229078     1.14338456     0.14025187
    7 H                    1.0000     1.15526641     2.74239424     0.02615563
    8 F                    9.0000     1.26054781    -1.12251987    -0.12839270
    9 F                    9.0000    -0.75024682    -1.05607737    -1.00723613
   10 F                    9.0000    -0.50433457    -1.02893892     1.16116021

         Total SCF energy =   -488.573423011775
          Total MP2 energy          -489.789530520481
         Total SCF energy =   -488.573415897945
          Total MP2 energy          -489.789530520247
         Total SCF energy =   -488.573394941112
          Total MP2 energy          -489.789530202259
         Total SCF energy =   -488.573443352115
          Total MP2 energy          -489.789530208990
         Total SCF energy =   -488.573402294850
          Total MP2 energy          -489.789530235794
         Total SCF energy =   -488.573436063475
          Total MP2 energy          -489.789530244317
         Total SCF energy =   -488.573417292137
          Total MP2 energy          -489.789530557145
         Total SCF energy =   -488.573421688622
          Total MP2 energy          -489.789530555944
         Total SCF energy =   -488.573434173762
          Total MP2 energy          -489.789530474166
         Total SCF energy =   -488.573404676207
          Total MP2 energy          -489.789530470609
         Total SCF energy =   -488.573438821268
          Total MP2 energy          -489.789530488494
         Total SCF energy =   -488.573400057226
          Total MP2 energy          -489.789530485316
         Total SCF energy =   -488.573428938053
          Total MP2 energy          -489.789530565634
         Total SCF energy =   -488.573410097482
          Total MP2 energy          -489.789530562890
         Total SCF energy =   -488.573416835359
          Total MP2 energy          -489.789530346027
         Total SCF energy =   -488.573421724030
          Total MP2 energy          -489.789530342246
         Total SCF energy =   -488.573394036554
          Total MP2 energy          -489.789530299801
         Total SCF energy =   -488.573444388066
          Total MP2 energy          -489.789530291841
         Total SCF energy =   -488.573419884365
          Total MP2 energy          -489.789530382106
         Total SCF energy =   -488.573418756019
          Total MP2 energy          -489.789530382779
         Total SCF energy =   -488.573411999210
          Total MP2 energy          -489.789530449282
         Total SCF energy =   -488.573426817810
          Total MP2 energy          -489.789530452083
         Total SCF energy =   -488.573424530345
          Total MP2 energy          -489.789530539092
         Total SCF energy =   -488.573414464990
          Total MP2 energy          -489.789530546589
         Total SCF energy =   -488.573418276222
          Total MP2 energy          -489.789530593191
         Total SCF energy =   -488.573420818232
          Total MP2 energy          -489.789530591553
         Total SCF energy =   -488.573420165744
          Total MP2 energy          -489.789530579320
         Total SCF energy =   -488.573418902474
          Total MP2 energy          -489.789530580511
         Total SCF energy =   -488.573410448631
          Total MP2 energy          -489.789530416321
         Total SCF energy =   -488.573428301951
          Total MP2 energy          -489.789530416557
         Total SCF energy =   -488.573419855367
          Total MP2 energy          -489.789530592006
         Total SCF energy =   -488.573419241314
          Total MP2 energy          -489.789530594825
         Total SCF energy =   -488.573387767982
          Total MP2 energy          -489.789530435550
         Total SCF energy =   -488.573451013464
          Total MP2 energy          -489.789530434302
         Total SCF energy =   -488.573431608528
          Total MP2 energy          -489.789530543673
         Total SCF energy =   -488.573407373309
          Total MP2 energy          -489.789530537532
         Total SCF energy =   -488.573423144769
          Total MP2 energy          -489.789530564885
         Total SCF energy =   -488.573415887978
          Total MP2 energy          -489.789530566774
         Total SCF energy =   -488.573439306549
          Total MP2 energy          -489.789530525034
         Total SCF energy =   -488.573399647320
          Total MP2 energy          -489.789530522645
         Total SCF energy =   -488.573429444367
          Total MP2 energy          -489.789530549681
         Total SCF energy =   -488.573409556267
          Total MP2 energy          -489.789530549507
         Total SCF energy =   -488.573445019818
          Total MP2 energy          -489.789530491473
         Total SCF energy =   -488.573393872547
          Total MP2 energy          -489.789530491668
         Total SCF energy =   -488.573433159744
          Total MP2 energy          -489.789530545099
         Total SCF energy =   -488.573405833208
          Total MP2 energy          -489.789530544375
         Total SCF energy =   -488.573428612206
          Total MP2 energy          -489.789530554474
         Total SCF energy =   -488.573410396880
          Total MP2 energy          -489.789530553641
         Total SCF energy =   -488.573389821941
          Total MP2 energy          -489.789530459666
         Total SCF energy =   -488.573449006857
          Total MP2 energy          -489.789530458142
 Zero-Point correction to Energy  =   38.541 kcal/mol  (  0.061420 au)
 Thermal correction to Energy     =   42.787 kcal/mol  (  0.068185 au)
 Thermal correction to Enthalpy   =   43.379 kcal/mol  (  0.069129 au)
 Total Entropy                    =   81.599 cal/mol-K
   - Translational                =   40.038 cal/mol-K (mol. weight = 112.0136)
   - Rotational                   =   27.281 cal/mol-K (symmetry #  =        1)
   - Vibrational                  =   14.280 cal/mol-K
   - Translational                  =    2.979 cal/mol-K
   - Rotational                     =    2.979 cal/mol-K
   - Vibrational                    =   17.987 cal/mol-K
 P.Frequency       -0.00       -0.00       -0.00       -0.00        0.00        0.00
 P.Frequency       64.79      241.13      247.91      291.86      368.28      413.17
 P.Frequency      482.38      565.59      603.53      671.53      739.58      770.75
 P.Frequency      879.49      967.43     1109.43     1142.10     1200.35     1282.25
 P.Frequency     1399.85     1440.72     1737.59     3220.01     3339.32     3793.99

 Normal Eigenvalue ||           Projected Infra Red Intensities
  Mode   [cm**-1]  || [atomic units] [(debye/angs)**2] [(KM/mol)] [arbitrary]
 ------ ---------- || -------------- ----------------- ---------- -----------
    1       -0.000 ||    0.000055           0.001         0.053       0.011
    2       -0.000 ||    0.000123           0.003         0.120       0.025
    3       -0.000 ||    0.000092           0.002         0.089       0.019
    4       -0.000 ||    0.000014           0.000         0.013       0.003
    5        0.000 ||    0.000042           0.001         0.041       0.009
    6        0.000 ||    0.000011           0.000         0.010       0.002
    7       64.790 ||    0.000210           0.005         0.205       0.043
    8      241.133 ||    0.001016           0.023         0.990       0.209
    9      247.907 ||    0.008179           0.189         7.973       1.681
   10      291.864 ||    0.101891           2.351        99.329      20.945
   11      368.275 ||    0.004036           0.093         3.934       0.830
   12      413.170 ||    0.004829           0.111         4.708       0.993
   13      482.382 ||    0.000287           0.007         0.280       0.059
   14      565.594 ||    0.008251           0.190         8.044       1.696
   15      603.534 ||    0.012289           0.284        11.980       2.526
   16      671.527 ||    0.003270           0.075         3.188       0.672
   17      739.583 ||    0.008977           0.207         8.751       1.845
   18      770.747 ||    0.005108           0.118         4.980       1.050
   19      879.486 ||    0.045211           1.043        44.074       9.294
   20      967.428 ||    0.023368           0.539        22.781       4.804
   21     1109.429 ||    0.255716           5.900       249.285      52.567
   22     1142.102 ||    0.162909           3.758       158.812      33.489
   23     1200.348 ||    0.303716           7.007       296.077      62.434
   24     1282.247 ||    0.186407           4.301       181.718      38.319
   25     1399.849 ||    0.093259           2.152        90.914      19.171
   26     1440.725 ||    0.075291           1.737        73.397      15.477
   27     1737.587 ||    0.038528           0.889        37.559       7.920
   28     3220.011 ||    0.001934           0.045         1.885       0.398
   29     3339.320 ||    0.000249           0.006         0.243       0.051
   30     3793.995 ||    0.114112           2.633       111.242      23.458
 ----------------------------------------------------------------------------

 Total times  cpu:     1350.0s     wall:     1458.2s
