 Gaussian 16, Revision A.03,
 Gaussian 16:  ES64L-G16RevA.03 25-Dec-2016

 -------------------------------------------------------
 # MP2/6-31G** Opt=(Recalc=50) Freq=(vibrot, anharmonic)
 -------------------------------------------------------

 ---------
 H,Fme,Fme
 ---------
 Symbolic Z-matrix:
 Charge =  0 Multiplicity = 1

 SCF Done:  E(RHF) =  -936.839237018     A.U. after   15 cycles
 E2 =    -0.2026706060D+01 EUMP2 =    -0.93886594307751D+03
 E2 =    -0.2026706060D+01 EUMP2 =    -0.93886594307751D+03
 SCF Done:  E(RHF) =  -936.857332821     A.U. after   16 cycles
 E2 =    -0.2022599251D+01 EUMP2 =    -0.93887993207234D+03
 SCF Done:  E(RHF) =  -936.854295806     A.U. after   17 cycles
 E2 =    -0.2023804991D+01 EUMP2 =    -0.93887810079638D+03
 SCF Done:  E(RHF) =  -936.857663584     A.U. after   14 cycles
 E2 =    -0.2022635115D+01 EUMP2 =    -0.93888029869903D+03
 SCF Done:  E(RHF) =  -936.857766211     A.U. after   13 cycles
 E2 =    -0.2022653408D+01 EUMP2 =    -0.93888041961881D+03
 SCF Done:  E(RHF) =  -936.857826440     A.U. after   12 cycles
 E2 =    -0.2022699620D+01 EUMP2 =    -0.93888052605971D+03
 SCF Done:  E(RHF) =  -936.857903170     A.U. after   10 cycles
 E2 =    -0.2022673990D+01 EUMP2 =    -0.93888057715922D+03
 SCF Done:  E(RHF) =  -936.857906082     A.U. after   13 cycles
 E2 =    -0.2022771438D+01 EUMP2 =    -0.93888067752030D+03
 SCF Done:  E(RHF) =  -936.857860537     A.U. after   12 cycles
 E2 =    -0.2022838357D+01 EUMP2 =    -0.93888069889470D+03
 SCF Done:  E(RHF) =  -936.857815533     A.U. after   11 cycles
 E2 =    -0.2022889905D+01 EUMP2 =    -0.93888070543798D+03
 E2 =    -0.2022899510D+01 EUMP2 =    -0.93888070616189D+03
 E2 =    -0.2022904555D+01 EUMP2 =    -0.93888070624525D+03
 Optimization completed.
    -- Stationary point found.

 1\1\GINC-N2143\FOpt\RMP2-FC\6-31G(d,p)\C5H2F6O2\GDS001\27-Oct-2020\0\\
 # MP2/6-31G** Opt=(Recalc=50) Freq=(vibrot, anharmonic)\\H,Fme,Fme\\0,
 1\C,-1.1386936763,2.3314578287,0.0217199096\C,-1.1083172289,0.95858253
 38,-0.0094660141\C,0.1815938626,0.3056941569,0.0999868149\O,-0.0873733
 895,3.1145092962,0.1406673497\O,1.2421721287,0.9474304931,0.2237205714
 \H,-2.0710023714,2.8728076557,-0.0606070512\C,-2.4155985642,0.23528674
 88,-0.1040687598\C,0.3283225058,-1.2235756674,0.002149843\H,0.70215188
 ,2.5127098387,0.2097194716\F,-3.4090777716,1.08372088,-0.4708749679\F,

 Normal termination of Gaussian 16 at Tue Oct 27 13:37:39 2020.

 ----------------------------------------------------------------------
 #N Geom=AllCheck Guess=TCheck SCRF=Check GenChk RMP2(FC)/6-31G(d,p) Fr
 eq
 ----------------------------------------------------------------------

 Structure from the checkpoint file:  "7.chk"
 ---------
 H,Fme,Fme
 ---------
 Charge =  0 Multiplicity = 1

                         Standard orientation:
 ---------------------------------------------------------------------
 Center     Atomic      Atomic             Coordinates (Angstroms)
 Number     Number       Type             X           Y           Z
 ---------------------------------------------------------------------
      1          6           0        1.736140    1.468877    0.032114
      2          6           0        0.798110    0.465724    0.010494
      3          6           0       -0.600260    0.845246   -0.040868
      4          8           0        1.473367    2.758519    0.012989
      5          8           0       -0.964327    2.036287   -0.069793
      6          1           0        2.793260    1.245996    0.075212
      7          6           0        1.290785   -0.947778   -0.008900
      8          6           0       -1.727815   -0.201776    0.005297
      9          1           0        0.482499    2.840596   -0.028555
     10          9           0        2.604570   -1.003680    0.326110
     11          9           0        1.176388   -1.519035   -1.227693
     12          9           0        0.623084   -1.727725    0.868099
     13          9           0       -1.471237   -1.237895   -0.815930
     14          9           0       -2.886885    0.352344   -0.366625
     15          9           0       -1.860346   -0.666986    1.262591
 ---------------------------------------------------------------------

 E2 =    -0.2022904559D+01 EUMP2 =    -0.93888070625021D+03
 E2 =    -0.2022904559D+01 EUMP2 =    -0.93888070625021D+03

                      1                      2                      3
                      A                      A                      A
 Frequencies --     59.9959                72.1537                83.0313
 Red. masses --     12.1905                13.2919                18.2094
 Frc consts  --      0.0259                 0.0408                 0.0740
 IR Inten    --      0.0946                 0.4411                 0.0109

                      4                      5                      6
                      A                      A                      A
 Frequencies --    154.6962               157.6939               215.9182
 Red. masses --     14.0687                16.7978                15.0451
 Frc consts  --      0.1984                 0.2461                 0.4133
 IR Inten    --      1.1422                 0.3282                 3.3817

                      7                      8                      9
                      A                      A                      A
 Frequencies --    240.7757               249.0512               330.4597
 Red. masses --     10.2286                11.5079                16.9158
 Frc consts  --      0.3494                 0.4206                 1.0884
 IR Inten    --      1.4817                 1.4247                 1.2231

                     10                     11                     12
                      A                      A                      A
 Frequencies --    364.9268               406.7377               420.8878
 Red. masses --      2.9975                 9.1369                13.4123
 Frc consts  --      0.2352                 0.8906                 1.3999
 IR Inten    --      0.8882                10.2414                 0.0592

                     13                     14                     15
                      A                      A                      A
 Frequencies --    444.2231               463.1757               520.9250
 Red. masses --     11.9086                15.6379                15.9328
 Frc consts  --      1.3846                 1.9766                 2.5474
 IR Inten    --      1.0663                 4.6287                 2.7698

                     16                     17                     18
                      A                      A                      A
 Frequencies --    557.5972               577.6553               606.4877
 Red. masses --     11.9726                11.0752                13.8081
 Frc consts  --      2.1932                 2.1774                 2.9925
 IR Inten    --      4.6639                23.1238                 1.5554

                     19                     20                     21
                      A                      A                      A
 Frequencies --    633.3348               732.5048               763.5390
 Red. masses --     10.2271                13.8682                14.0983
 Frc consts  --      2.4170                 4.3842                 4.8426
 IR Inten    --      5.1544                11.9049                13.6422

                     22                     23                     24
                      A                      A                      A
 Frequencies --    775.7265               915.6303               997.5263
 Red. masses --     10.3374                 1.3750                 8.1511
 Frc consts  --      3.6651                 0.6792                 4.7788
 IR Inten    --      3.5104                61.5941                75.4862

                     25                     26                     27
                      A                      A                      A
 Frequencies --   1049.9943              1132.6972              1208.2840
 Red. masses --      1.1863                 9.3458                10.8464
 Frc consts  --      0.7706                 7.0647                 9.3299
 IR Inten    --     70.1116               239.5043               125.2296

                     28                     29                     30
                      A                      A                      A
 Frequencies --   1226.1303              1259.0182              1294.1125
 Red. masses --     12.5787                12.8840                12.0220
 Frc consts  --     11.1419                12.0327                11.8623
 IR Inten    --     26.3051               489.9826               183.0467

                     31                     32                     33
                      A                      A                      A
 Frequencies --   1306.4697              1358.5972              1389.7857
 Red. masses --      2.3599                 2.0278                 7.3906
 Frc consts  --      2.3733                 2.2052                 8.4106
 IR Inten    --    424.4956               207.3936                67.1613

                     34                     35                     36
                      A                      A                      A
 Frequencies --   1451.9693              1499.8217              1671.7069
 Red. masses --      2.2324                 5.9058                 3.0505
 Frc consts  --      2.7729                 7.8272                 5.0227
 IR Inten    --     41.2331                70.3743               292.3179

                     37                     38                     39
                      A                      A                      A
 Frequencies --   1734.9104              3282.0906              3321.5542
 Red. masses --      7.2157                 1.0774                 1.0843
 Frc consts  --     12.7962                 6.8380                 7.0484
 IR Inten    --    228.3328               116.6601                59.3860

 - Thermochemistry -
 -------------------
 Temperature   298.150 Kelvin.  Pressure   1.00000 Atm.
 Atom     1 has atomic number  6 and mass  12.00000

 Molecular mass:   207.99590 amu.
 Principal axes and moments of inertia in atomic units:
                           1         2         3
     Eigenvalues --  1769.105532429.240803551.39653
           X            0.99894   0.04598   0.00068
           Y           -0.04598   0.99894  -0.00019
           Z           -0.00068   0.00016   1.00000
 This molecule is an asymmetric top.
 Rotational symmetry number  1.
 Warning -- assumption of classical behavior for rotation
           may cause significant error
 Rotational temperatures (Kelvin)      0.04896     0.03565     0.02439
 Rotational constants (GHZ):           1.02014     0.74292     0.50818
 Zero-point vibrational energy     208938.5 (Joules/Mol)
                                   49.93751 (Kcal/Mol)
 Warning -- explicit consideration of  18 degrees of freedom as
           vibrations may cause significant error
 Vibrational temperatures:     86.32   103.81   119.46   222.57   226.89
          (Kelvin)            310.66   346.42   358.33   475.46   525.05
                              585.20   605.56   639.14   666.41   749.49
                              802.26   831.12   872.60   911.23  1053.91
                             1098.56  1116.10  1317.39  1435.22  1510.71
                             1629.70  1738.45  1764.13  1811.45  1861.94
                             1879.72  1954.72  1999.59  2089.06  2157.91
                             2405.21  2496.15  4722.20  4778.98

 Zero-point correction=                           0.079580 (Hartree/Particle)
 Thermal correction to Energy=                    0.090796
 Thermal correction to Enthalpy=                  0.091740
 Thermal correction to Gibbs Free Energy=         0.041546
 Sum of electronic and zero-point Energies=           -938.801126
 Sum of electronic and thermal Energies=              -938.789911
 Sum of electronic and thermal Enthalpies=            -938.788967
 Sum of electronic and thermal Free Energies=         -938.839160

                     E (Thermal)             CV                S
                      KCal/Mol        Cal/Mol-Kelvin    Cal/Mol-Kelvin
 Total                   56.975             40.076            105.641
 Electronic               0.000              0.000              0.000
 Translational            0.889              2.981             41.901
 Rotational               0.889              2.981             31.102
 Vibrational             55.198             34.114             32.638
 Vibration     1          0.597              1.973              4.457
 Vibration     2          0.598              1.967              4.094
 Vibration     3          0.600              1.961              3.818
 Vibration     4          0.620              1.897              2.614
 Vibration     5          0.621              1.894              2.577
 Vibration     6          0.645              1.817              1.993
 Vibration     7          0.658              1.778              1.797
 Vibration     8          0.662              1.764              1.737
 Vibration     9          0.713              1.615              1.258
 Vibration    10          0.738              1.544              1.101
 Vibration    11          0.772              1.456              0.938
 Vibration    12          0.783              1.425              0.889
 Vibration    13          0.804              1.374              0.813
 Vibration    14          0.821              1.332              0.757
 Vibration    15          0.876              1.204              0.608
 Vibration    16          0.913              1.123              0.529
 Vibration    17          0.934              1.080              0.490
 Vibration    18          0.965              1.018              0.439

 E2 =    -0.2022904826D+01 EUMP2 =    -0.93888070620690D+03
 E2 =    -0.2022904826D+01 EUMP2 =    -0.93888070620690D+03
 E2 =    -0.2022904494D+01 EUMP2 =    -0.93888070624140D+03
 E2 =    -0.2022904494D+01 EUMP2 =    -0.93888070624140D+03
 E2 =    -0.2022904921D+01 EUMP2 =    -0.93888070623399D+03
 E2 =    -0.2022903746D+01 EUMP2 =    -0.93888070615617D+03
 SCF Done:  E(RHF) =  -936.857802939     A.U. after    9 cycles
 E2 =    -0.2022903158D+01 EUMP2 =    -0.93888070609713D+03
 E2 =    -0.2022903158D+01 EUMP2 =    -0.93888070609713D+03
 SCF Done:  E(RHF) =  -936.857799744     A.U. after    9 cycles
 E2 =    -0.2022906332D+01 EUMP2 =    -0.93888070607574D+03
 E2 =    -0.2022906332D+01 EUMP2 =    -0.93888070607574D+03
 SCF Done:  E(RHF) =  -936.857802012     A.U. after    8 cycles
 E2 =    -0.2022904060D+01 EUMP2 =    -0.93888070607187D+03
 E2 =    -0.2022904060D+01 EUMP2 =    -0.93888070607187D+03
 SCF Done:  E(RHF) =  -936.857800909     A.U. after    8 cycles
 E2 =    -0.2022905180D+01 EUMP2 =    -0.93888070608910D+03
 E2 =    -0.2022905180D+01 EUMP2 =    -0.93888070608910D+03
 SCF Done:  E(RHF) =  -936.857802573     A.U. after    7 cycles
 E2 =    -0.2022903406D+01 EUMP2 =    -0.93888070597837D+03
 E2 =    -0.2022903406D+01 EUMP2 =    -0.93888070597837D+03
 SCF Done:  E(RHF) =  -936.857799889     A.U. after    7 cycles
 E2 =    -0.2022905999D+01 EUMP2 =    -0.93888070588780D+03
 E2 =    -0.2022905999D+01 EUMP2 =    -0.93888070588780D+03
 SCF Done:  E(RHF) =  -936.857818831     A.U. after    9 cycles
 E2 =    -0.2022887108D+01 EUMP2 =    -0.93888070593905D+03
 E2 =    -0.2022887108D+01 EUMP2 =    -0.93888070593905D+03
 SCF Done:  E(RHF) =  -936.857783433     A.U. after    9 cycles
 E2 =    -0.2022922341D+01 EUMP2 =    -0.93888070577409D+03
 E2 =    -0.2022922341D+01 EUMP2 =    -0.93888070577409D+03
 SCF Done:  E(RHF) =  -936.857814905     A.U. after    9 cycles
 E2 =    -0.2022890904D+01 EUMP2 =    -0.93888070580822D+03
 E2 =    -0.2022890904D+01 EUMP2 =    -0.93888070580822D+03

 Alpha  occ. eigenvalues --  -26.36724 -26.36483 -26.36220 -26.36166 -26.35463
 Alpha  occ. eigenvalues --  -26.34979 -20.65472 -20.62074 -11.54339 -11.53974
 Alpha  occ. eigenvalues --  -11.41361 -11.39836 -11.29224  -1.74586  -1.73519
 Alpha  occ. eigenvalues --   -1.65316  -1.65031  -1.64403  -1.63814  -1.48161
 Alpha  occ. eigenvalues --   -1.43538  -1.15126  -1.03994  -0.98206  -0.93524
 Alpha  occ. eigenvalues --   -0.88852  -0.84876  -0.84023  -0.83865  -0.82852
 Alpha  occ. eigenvalues --   -0.82623  -0.78662  -0.72866  -0.72726  -0.72231
 Alpha  occ. eigenvalues --   -0.71596  -0.70396  -0.69276  -0.68053  -0.67973
 Alpha  occ. eigenvalues --   -0.66890  -0.66511  -0.66010  -0.65385  -0.64676
 Alpha  occ. eigenvalues --   -0.63960  -0.63504  -0.58477  -0.58007  -0.48618
 Alpha  occ. eigenvalues --   -0.41204
 Alpha virt. eigenvalues --    0.04222   0.17534   0.23776   0.26770   0.28723
 Alpha virt. eigenvalues --    0.35375   0.37413   0.38436   0.41221   0.43132
 Alpha virt. eigenvalues --    0.44171   0.45219   0.47193   0.53381   0.54291

 Mulliken charges:
               1
     1  C    0.234526
     2  C   -0.303016
     3  C    0.290959
     4  O   -0.482201
     5  O   -0.474844
     6  H    0.187090
     7  C    0.948831
     8  C    0.909052
     9  H    0.394000
    10  F   -0.299314
    11  F   -0.283206
    12  F   -0.290584
    13  F   -0.282350
    14  F   -0.269729
    15  F   -0.279215
 Sum of Mulliken charges =  -0.00000

 Dipole moment (field-independent basis, Debye):
    X=              1.5000    Y=              1.1632    Z=             -0.0078  Tot=              1.8982
 Quadrupole moment (field-independent basis, Debye-Ang):
   XX=            -69.7952   YY=            -72.9214   ZZ=            -69.1859
   XY=              2.3677   XZ=              0.1603   YZ=             -0.0079

  Exact polarizability:  72.028   4.474  67.582   0.893  -0.165  37.222
 Approx polarizability:  56.700   0.910  57.762   0.673  -0.232  38.320

 SCF Done:  E(RHF) =  -936.857787207     A.U. after    9 cycles
 E2 =    -0.2022918643D+01 EUMP2 =    -0.93888070585020D+03
