============================== echo of input deck ==============================
echo
start 7R1
title "MeF,H,MeF Ref 1"
charge 0

geometry
 zmatrix
  O
  C  1  R1
  C  2  R2  1  A1
  H  1  R5  2  A4  3  D0
  C  2  R6  3  A5  4  D180
  H  3  R7  2  A6  1  D180
  H  3  R8  2  A7  1  D0
  F  5  R9  2  A8  1  D1
  F  5  R10 2  A9  1  D2
  F  5  R11 2  A10 1  D3
  variables
    R1  1.329
    R2  1.363
    A1  124.5
    R3  1.440
    A2  119.5
    R4  1.249
    A3  123.5
    R5  0.994
    A4  105.4
    R6  1.485
    A5  122.5
    R7  1.078
    A6  120.0
    R8  1.099
    A7  117.6
    R9  1.350
    A8  110.0
    D1  180.0
    R10 1.350
    A9  110.0
    D2  60.00
    R11 1.350
    A10 110.0
    D3  -60.0
  constants
    D0  0.000
    D180 180.0
 end
end

basis spherical
 * library aug-cc-pVDZ
end

set lindep:n_dep 0

set cphf:maxsub 95
set cphf:maxiter 999
set int:acc_std 1d-16
set fock:densityscreen f

scf
 maxiter 99
 vectors input atomic
 thresh 1d-9
 tol2e 1d-15
end

mp2
 freeze atomic
 tight
end

driver
 clear
 maxiter 99
 tight
end

set "mp2:aotol2e fock" 1d-15
set mp2:aotol2e 1d-15
set mp2:backtol 1d-15

task mp2 optimize
task mp2 frequencies

================================================================================

         Total SCF energy =   -488.569066346450
          Total MP2 energy          -489.784799704050
@ Step       Energy      Delta E   Gmax     Grms     Xrms     Xmax   Walltime
@ ---- ---------------- -------- -------- -------- -------- -------- --------
@    0    -489.78479970  0.0D+00  0.03787  0.01151  0.00000  0.00000    143.4
         Total SCF energy =   -488.565740384051
          Total MP2 energy          -489.781096226009
         Total SCF energy =   -488.572992061589
          Total MP2 energy          -489.788280914764
@    1    -489.78828091 -3.5D-03  0.01913  0.00609  0.05338  0.13354    334.0
         Total SCF energy =   -488.571786624314
          Total MP2 energy          -489.788411258712
         Total SCF energy =   -488.573516411049
          Total MP2 energy          -489.789438780335
@    2    -489.78943878 -1.2D-03  0.00562  0.00184  0.02734  0.09673    520.7
         Total SCF energy =   -488.572754153669
          Total MP2 energy          -489.788482566883
         Total SCF energy =   -488.573665909882
          Total MP2 energy          -489.789528301736
@    3    -489.78952830 -9.0D-05  0.00337  0.00114  0.00652  0.01591    706.5
         Total SCF energy =   -488.574230679061
          Total MP2 energy          -489.789538006731
         Total SCF energy =   -488.574006737912
          Total MP2 energy          -489.789571958600
@    4    -489.78957196 -4.4D-05  0.00114  0.00046  0.00716  0.01743    884.1
         Total SCF energy =   -488.574200690727
          Total MP2 energy          -489.789579149045
         Total SCF energy =   -488.574131364347
          Total MP2 energy          -489.789589292811
@    5    -489.78958929 -1.7D-05  0.00102  0.00028  0.00401  0.01052   1056.5
         Total SCF energy =   -488.574111531614
          Total MP2 energy          -489.789593973223
         Total SCF energy =   -488.574111531614
          Total MP2 energy          -489.789593973223
@    6    -489.78959397 -4.7D-06  0.00022  0.00007  0.00205  0.00817   1188.3
         Total SCF energy =   -488.574075095487
          Total MP2 energy          -489.789594292539
         Total SCF energy =   -488.574075095487
          Total MP2 energy          -489.789594292539
@    7    -489.78959429 -3.2D-07  0.00007  0.00002  0.00074  0.00274   1319.2
         Total SCF energy =   -488.574078525249
          Total MP2 energy          -489.789594311101
         Total SCF energy =   -488.574078525249
          Total MP2 energy          -489.789594311101
@    8    -489.78959431 -1.9D-08  0.00001  0.00000  0.00013  0.00044   1448.4
         Total SCF energy =   -488.574080534824

 Vector   51  Occ=0.000000D+00  E= 3.105438D-01  Symmetry=a"

 Vector   52  Occ=0.000000D+00  E= 3.179484D-01  Symmetry=a'

 Vector   53  Occ=0.000000D+00  E= 3.288150D-01  Symmetry=a'

 Vector   54  Occ=0.000000D+00  E= 3.585272D-01  Symmetry=a"

 Vector   55  Occ=0.000000D+00  E= 3.637379D-01  Symmetry=a'

 Vector   56  Occ=0.000000D+00  E= 3.715170D-01  Symmetry=a'

 Vector   57  Occ=0.000000D+00  E= 3.763371D-01  Symmetry=a"

 Vector   58  Occ=0.000000D+00  E= 3.827041D-01  Symmetry=a'

 Vector   59  Occ=0.000000D+00  E= 3.940873D-01  Symmetry=a'

 Vector   60  Occ=0.000000D+00  E= 3.946443D-01  Symmetry=a"

 Vector   61  Occ=0.000000D+00  E= 4.091873D-01  Symmetry=a'

 Vector   62  Occ=0.000000D+00  E= 4.260504D-01  Symmetry=a"

 Vector   63  Occ=0.000000D+00  E= 4.313046D-01  Symmetry=a'

 Vector   64  Occ=0.000000D+00  E= 4.395584D-01  Symmetry=a"

 Vector   65  Occ=0.000000D+00  E= 4.406903D-01  Symmetry=a'

 Vector   66  Occ=0.000000D+00  E= 4.537091D-01  Symmetry=a'

 Vector   67  Occ=0.000000D+00  E= 4.781295D-01  Symmetry=a'

 Vector   68  Occ=0.000000D+00  E= 4.950265D-01  Symmetry=a"

 Vector   69  Occ=0.000000D+00  E= 4.952671D-01  Symmetry=a'

 Vector   70  Occ=0.000000D+00  E= 5.213181D-01  Symmetry=a"

          Total MP2 energy          -489.789594311928
         Total SCF energy =   -488.574080534824
          Total MP2 energy          -489.789594311928
@    9    -489.78959431 -8.3D-10  0.00001  0.00000  0.00003  0.00008   1577.4
         Total SCF energy =   -488.574079622877

 Vector   11  Occ=2.000000D+00  E=-1.438097D+00  Symmetry=a'

 Vector   12  Occ=2.000000D+00  E=-1.090911D+00  Symmetry=a'

 Vector   13  Occ=2.000000D+00  E=-9.832251D-01  Symmetry=a'

 Vector   14  Occ=2.000000D+00  E=-8.811489D-01  Symmetry=a'

 Vector   15  Occ=2.000000D+00  E=-8.225470D-01  Symmetry=a'

 Vector   16  Occ=2.000000D+00  E=-8.202852D-01  Symmetry=a"

 Vector   17  Occ=2.000000D+00  E=-7.782185D-01  Symmetry=a'

 Vector   18  Occ=2.000000D+00  E=-7.123754D-01  Symmetry=a'

 Vector   19  Occ=2.000000D+00  E=-7.102167D-01  Symmetry=a"

 Vector   20  Occ=2.000000D+00  E=-7.071697D-01  Symmetry=a'

 Vector   21  Occ=2.000000D+00  E=-6.656863D-01  Symmetry=a'

 Vector   22  Occ=2.000000D+00  E=-6.634090D-01  Symmetry=a"

 Vector   23  Occ=2.000000D+00  E=-6.523158D-01  Symmetry=a'

 Vector   24  Occ=2.000000D+00  E=-6.490047D-01  Symmetry=a"

 Vector   25  Occ=2.000000D+00  E=-6.035017D-01  Symmetry=a"

 Vector   26  Occ=2.000000D+00  E=-5.780179D-01  Symmetry=a'

 Vector   27  Occ=2.000000D+00  E=-5.673004D-01  Symmetry=a'

 Vector   28  Occ=2.000000D+00  E=-3.850654D-01  Symmetry=a"

 Vector   29  Occ=0.000000D+00  E= 2.601157D-02  Symmetry=a'

 Vector   30  Occ=0.000000D+00  E= 4.581276D-02  Symmetry=a'

 Vector   31  Occ=0.000000D+00  E= 5.621322D-02  Symmetry=a'

 Vector   32  Occ=0.000000D+00  E= 8.736351D-02  Symmetry=a'

 Vector   33  Occ=0.000000D+00  E= 8.880954D-02  Symmetry=a"

 Vector   34  Occ=0.000000D+00  E= 1.101851D-01  Symmetry=a"

 Vector   35  Occ=0.000000D+00  E= 1.136451D-01  Symmetry=a'

 Vector   36  Occ=0.000000D+00  E= 1.198597D-01  Symmetry=a'

 Vector   37  Occ=0.000000D+00  E= 1.369364D-01  Symmetry=a"

 Vector   38  Occ=0.000000D+00  E= 1.376694D-01  Symmetry=a'

 Vector   39  Occ=0.000000D+00  E= 1.516035D-01  Symmetry=a'

 Vector   40  Occ=0.000000D+00  E= 1.701046D-01  Symmetry=a"

 Vector   41  Occ=0.000000D+00  E= 1.711724D-01  Symmetry=a'

 Vector   42  Occ=0.000000D+00  E= 1.768416D-01  Symmetry=a'

 Vector   43  Occ=0.000000D+00  E= 2.018810D-01  Symmetry=a'

 Vector   44  Occ=0.000000D+00  E= 2.185023D-01  Symmetry=a'

 Vector   45  Occ=0.000000D+00  E= 2.338038D-01  Symmetry=a'

 Vector   46  Occ=0.000000D+00  E= 2.508056D-01  Symmetry=a"

 Vector   47  Occ=0.000000D+00  E= 2.670487D-01  Symmetry=a'

 Vector   48  Occ=0.000000D+00  E= 2.853968D-01  Symmetry=a"

 Vector   49  Occ=0.000000D+00  E= 2.859210D-01  Symmetry=a'

 Vector   50  Occ=0.000000D+00  E= 3.091312D-01  Symmetry=a'

 Vector   51  Occ=0.000000D+00  E= 3.105437D-01  Symmetry=a"

 Vector   52  Occ=0.000000D+00  E= 3.179483D-01  Symmetry=a'

 Vector   53  Occ=0.000000D+00  E= 3.288141D-01  Symmetry=a'

 Vector   54  Occ=0.000000D+00  E= 3.585270D-01  Symmetry=a"

 Vector   55  Occ=0.000000D+00  E= 3.637376D-01  Symmetry=a'

 Vector   56  Occ=0.000000D+00  E= 3.715162D-01  Symmetry=a'

 Vector   57  Occ=0.000000D+00  E= 3.763371D-01  Symmetry=a"

 Vector   58  Occ=0.000000D+00  E= 3.827039D-01  Symmetry=a'

 Vector   59  Occ=0.000000D+00  E= 3.940872D-01  Symmetry=a'

 Vector   60  Occ=0.000000D+00  E= 3.946442D-01  Symmetry=a"

 Vector   61  Occ=0.000000D+00  E= 4.091873D-01  Symmetry=a'

 Vector   62  Occ=0.000000D+00  E= 4.260499D-01  Symmetry=a"

 Vector   63  Occ=0.000000D+00  E= 4.313045D-01  Symmetry=a'

 Vector   64  Occ=0.000000D+00  E= 4.395577D-01  Symmetry=a"

 Vector   65  Occ=0.000000D+00  E= 4.406894D-01  Symmetry=a'

 Vector   66  Occ=0.000000D+00  E= 4.537082D-01  Symmetry=a'

 Vector   67  Occ=0.000000D+00  E= 4.781283D-01  Symmetry=a'

 Vector   68  Occ=0.000000D+00  E= 4.950259D-01  Symmetry=a"

 Vector   69  Occ=0.000000D+00  E= 4.952669D-01  Symmetry=a'

 Vector   70  Occ=0.000000D+00  E= 5.213179D-01  Symmetry=a"

       Multipole analysis of the density wrt the origin
       ------------------------------------------------

     L   x y z        total         open         nuclear
     -   - - -        -----         ----         -------
     0   0 0 0     -0.000000      0.000000     56.000000

     1   1 0 0      0.458562      0.000000     -0.188018
     1   0 1 0      1.385164      0.000000     -0.364843
     1   0 0 1      0.000000      0.000000      0.000000

     2   2 0 0    -29.169177      0.000000    177.864828
     2   1 1 0     -0.078839      0.000000      5.850002
     2   1 0 1      0.000000      0.000000      0.000000
     2   0 2 0    -23.225457      0.000000    302.715282
     2   0 1 1     -0.000000      0.000000      0.000000

          Total MP2 energy          -489.789594311943
         Total SCF energy =   -488.574079622877
          Total MP2 energy          -489.789594311943
@   10    -489.78959431 -1.5D-11  0.00000  0.00000  0.00001  0.00002   1698.0
@   10    -489.78959431 -1.5D-11  0.00000  0.00000  0.00001  0.00002   1698.0

 Output coordinates in angstroms (scale by  1.889725989 to convert to a.u.)

  No.       Tag          Charge          X              Y              Z
 ---- ---------------- ---------- -------------- -------------- --------------
    1 O                    8.0000    -1.17288988     1.44820451     0.00000000
    2 C                    6.0000     0.08757866     0.91577630     0.00000000
    3 C                    6.0000     1.26138785     1.57831842     0.00000000
    4 H                    1.0000    -1.10313526     2.41449030     0.00000000
    5 C                    6.0000    -0.00491169    -0.59179983     0.00000000
    6 H                    1.0000     2.19717136     1.02368459     0.00000000
    7 H                    1.0000     1.28983269     2.67006573     0.00000000
    8 F                    9.0000     1.21740066    -1.17397416     0.00000000
    9 F                    9.0000    -0.67339887    -1.04083028    -1.09206501
   10 F                    9.0000    -0.67339887    -1.04083028     1.09206501

         Total SCF energy =   -488.574079622877
          Total MP2 energy          -489.789594311943
         Total SCF energy =   -488.574103815011
          Total MP2 energy          -489.789594117291
         Total SCF energy =   -488.574055007860
          Total MP2 energy          -489.789594116929
         Total SCF energy =   -488.574100594133
          Total MP2 energy          -489.789593985614
         Total SCF energy =   -488.574057975292
          Total MP2 energy          -489.789593982309
         Total SCF energy =   -488.574079594638
          Total MP2 energy          -489.789594296620
         Total SCF energy =   -488.574079594638
          Total MP2 energy          -489.789594296621
         Total SCF energy =   -488.574091523575
          Total MP2 energy          -489.789593905142
         Total SCF energy =   -488.574066876897
          Total MP2 energy          -489.789593904104
         Total SCF energy =   -488.574097241388
          Total MP2 energy          -489.789593975571
         Total SCF energy =   -488.574061257091
          Total MP2 energy          -489.789593973993
         Total SCF energy =   -488.574079515556
          Total MP2 energy          -489.789594230256
         Total SCF energy =   -488.574079515556
          Total MP2 energy          -489.789594230256
         Total SCF energy =   -488.574053976247
          Total MP2 energy          -489.789593910971
         Total SCF energy =   -488.574104433627
          Total MP2 energy          -489.789593912498
         Total SCF energy =   -488.574064427922
          Total MP2 energy          -489.789593953757
         Total SCF energy =   -488.574094064601
          Total MP2 energy          -489.789593954999
         Total SCF energy =   -488.574079555116
          Total MP2 energy          -489.789594268761
         Total SCF energy =   -488.574079555116
          Total MP2 energy          -489.789594268761
         Total SCF energy =   -488.574074912271
          Total MP2 energy          -489.789594284668
         Total SCF energy =   -488.574084257668
          Total MP2 energy          -489.789594284596
         Total SCF energy =   -488.574053021985
          Total MP2 energy          -489.789594050387
         Total SCF energy =   -488.574105699844
          Total MP2 energy          -489.789594054553
         Total SCF energy =   -488.574079613714
          Total MP2 energy          -489.789594309597
         Total SCF energy =   -488.574079613715
          Total MP2 energy          -489.789594309598
         Total SCF energy =   -488.574077238740
          Total MP2 energy          -489.789594056103
         Total SCF energy =   -488.574081447126
          Total MP2 energy          -489.789594055123
         Total SCF energy =   -488.574054186744
          Total MP2 energy          -489.789593998586
         Total SCF energy =   -488.574104346456
          Total MP2 energy          -489.789593998348
         Total SCF energy =   -488.574079366649
          Total MP2 energy          -489.789594078559
         Total SCF energy =   -488.574079366649
          Total MP2 energy          -489.789594078559
         Total SCF energy =   -488.574071758722
          Total MP2 energy          -489.789594163756
         Total SCF energy =   -488.574087187185
          Total MP2 energy          -489.789594163756
         Total SCF energy =   -488.574084830893
          Total MP2 energy          -489.789594243483
         Total SCF energy =   -488.574074269229
          Total MP2 energy          -489.789594243698
         Total SCF energy =   -488.574079608286
          Total MP2 energy          -489.789594301863
         Total SCF energy =   -488.574079608286
          Total MP2 energy          -489.789594301862
         Total SCF energy =   -488.574079547452
          Total MP2 energy          -489.789594286501
         Total SCF energy =   -488.574079637110
          Total MP2 energy          -489.789594286744
         Total SCF energy =   -488.574070646367
          Total MP2 energy          -489.789594126867
         Total SCF energy =   -488.574088228522
          Total MP2 energy          -489.789594126695
         Total SCF energy =   -488.574079608705
          Total MP2 energy          -489.789594302054
         Total SCF energy =   -488.574079608705
          Total MP2 energy          -489.789594302054
         Total SCF energy =   -488.574048172945
          Total MP2 energy          -489.789594148380
         Total SCF energy =   -488.574110740022
          Total MP2 energy          -489.789594149247
         Total SCF energy =   -488.574091673036
          Total MP2 energy          -489.789594245556
         Total SCF energy =   -488.574067421692
          Total MP2 energy          -489.789594245374
         Total SCF energy =   -488.574079576935
          Total MP2 energy          -489.789594274768
         Total SCF energy =   -488.574079576935
          Total MP2 energy          -489.789594274767
         Total SCF energy =   -488.574096702181
          Total MP2 energy          -489.789594237942
         Total SCF energy =   -488.574062380935
          Total MP2 energy          -489.789594237855
         Total SCF energy =   -488.574088723316
          Total MP2 energy          -489.789594261197
         Total SCF energy =   -488.574070403198
          Total MP2 energy          -489.789594261140
         Total SCF energy =   -488.574051565802
          Total MP2 energy          -489.789594177389
         Total SCF energy =   -488.574107401985
          Total MP2 energy          -489.789594177454
 Zero-Point correction to Energy  =   38.621 kcal/mol  (  0.061546 au)
 Thermal correction to Energy     =   42.802 kcal/mol  (  0.068210 au)
 Thermal correction to Enthalpy   =   43.395 kcal/mol  (  0.069154 au)
 Total Entropy                    =   81.108 cal/mol-K
   - Translational                =   40.038 cal/mol-K (mol. weight = 112.0136)
   - Rotational                   =   27.271 cal/mol-K (symmetry #  =        1)
   - Vibrational                  =   13.799 cal/mol-K
   - Translational                  =    2.979 cal/mol-K
   - Rotational                     =    2.979 cal/mol-K
   - Vibrational                    =   17.848 cal/mol-K
 P.Frequency       -0.00        0.00        0.00        0.00        0.00        0.00
 P.Frequency       66.51      243.80      252.21      361.84      377.07      413.52
 P.Frequency      488.44      567.90      598.55      679.08      722.74      775.99
 P.Frequency      855.63      967.29     1123.10     1148.60     1179.71     1258.34
 P.Frequency     1419.21     1469.36     1719.47     3207.57     3329.49     3803.11

 Normal Eigenvalue ||           Projected Infra Red Intensities
  Mode   [cm**-1]  || [atomic units] [(debye/angs)**2] [(KM/mol)] [arbitrary]
 ------ ---------- || -------------- ----------------- ---------- -----------
    1       -0.000 ||    0.000946           0.022         0.922       0.202
    2        0.000 ||    0.000357           0.008         0.348       0.076
    3        0.000 ||    0.001503           0.035         1.465       0.321
    4        0.000 ||    0.000219           0.005         0.213       0.047
    5        0.000 ||    0.000097           0.002         0.094       0.021
    6        0.000 ||    0.001299           0.030         1.266       0.277
    7       66.511 ||    0.000840           0.019         0.819       0.179
    8      243.796 ||    0.002525           0.058         2.462       0.539
    9      252.214 ||    0.000296           0.007         0.288       0.063
   10      361.841 ||    0.099356           2.292        96.857      21.194
   11      377.073 ||    0.002044           0.047         1.993       0.436
   12      413.517 ||    0.000069           0.002         0.067       0.015
   13      488.437 ||    0.002511           0.058         2.448       0.536
   14      567.904 ||    0.006620           0.153         6.454       1.412
   15      598.547 ||    0.028152           0.649        27.444       6.005
   16      679.075 ||    0.000514           0.012         0.501       0.110
   17      722.742 ||    0.000064           0.001         0.063       0.014
   18      775.989 ||    0.000393           0.009         0.383       0.084
   19      855.627 ||    0.048151           1.111        46.940      10.271
   20      967.292 ||    0.008959           0.207         8.734       1.911
   21     1123.104 ||    0.233681           5.391       227.803      49.848
   22     1148.596 ||    0.298233           6.880       290.732      63.618
   23     1179.714 ||    0.312778           7.216       304.912      66.721
   24     1258.342 ||    0.075908           1.751        73.999      16.192
   25     1419.214 ||    0.036936           0.852        36.007       7.879
   26     1469.363 ||    0.091312           2.107        89.015      19.478
   27     1719.465 ||    0.079421           1.832        77.424      16.942
   28     3207.574 ||    0.005618           0.130         5.477       1.198
   29     3329.494 ||    0.000357           0.008         0.348       0.076
   30     3803.111 ||    0.067207           1.551        65.516      14.336
 ----------------------------------------------------------------------------

 Total times  cpu:    10555.6s     wall:    10658.9s
