============================== echo of input deck ==============================
echo
start 7R2
title "7 Ref Open"
memory stack 17500 mb heap 1000 mb global 4500 mb noverify
charge 0

geometry noautoz noautosym
O       -1.1728595000      1.4989569600      0.0000000000
C        0.0660304100      0.9100567000      0.0000000000
C        1.2035535800      1.6292780600      0.0000000000
H       -1.8160458245      0.9171879686     -0.5352332610
C        0.0532593200     -0.5966696700      0.0000000000
H        2.1654120600      1.1218537600      0.0000000000
H        1.1583259000      2.7186352200      0.0000000000
F        1.2837112500     -1.1414366800      0.0000000000
F       -0.6171642700     -1.0735572000     -1.0901476500
F       -0.6171642700     -1.0735572000      1.0901476500
end

set lindep:n_dep 0

set cphf:maxsub 95
set cphf:maxiter 999
set int:acc_std 1d-16
set fock:densityscreen f

scf
 maxiter 99
 vectors input atomic
 thresh 1d-9
 tol2e 1d-15
end

mp2
 freeze atomic
 tight
end

driver
 clear
 maxiter 999
 tight
end

set "mp2:aotol2e fock" 1d-15
set mp2:aotol2e 1d-15
set mp2:backtol 1d-15

basis spherical
 * library aug-cc-pVDZ
end

task mp2 optimize
task mp2 frequencies

================================================================================

         Total SCF energy =   -488.568785837702
          Total MP2 energy          -489.786709821848
@ Step       Energy      Delta E   Gmax     Grms     Xrms     Xmax   Walltime
@ ---- ---------------- -------- -------- -------- -------- -------- --------
@    0    -489.78670982  0.0D+00  0.02822  0.01070  0.00000  0.00000     18.3
         Total SCF energy =   -488.573643953071
          Total MP2 energy          -489.788593382503
         Total SCF energy =   -488.573241025212
          Total MP2 energy          -489.788783161632
@    1    -489.78878316 -2.1D-03  0.00396  0.00154  0.01387  0.04080     42.7
         Total SCF energy =   -488.573179774263
          Total MP2 energy          -489.788934484573
         Total SCF energy =   -488.573179774263
          Total MP2 energy          -489.788934484573
@    2    -489.78893448 -1.5D-04  0.00301  0.00105  0.00833  0.02137     59.1
         Total SCF energy =   -488.573280512104
          Total MP2 energy          -489.789026901343
         Total SCF energy =   -488.573307096502
          Total MP2 energy          -489.789081937029
@    3    -489.78908194 -1.5D-04  0.00370  0.00142  0.01507  0.04677     81.8
         Total SCF energy =   -488.573457963293
          Total MP2 energy          -489.789211558648
         Total SCF energy =   -488.573452658982
          Total MP2 energy          -489.789231386012
@    4    -489.78923139 -1.5D-04  0.00463  0.00156  0.01891  0.05704    104.4
         Total SCF energy =   -488.573372294523
          Total MP2 energy          -489.789315011159
         Total SCF energy =   -488.573309800960
          Total MP2 energy          -489.789321882093
@    5    -489.78932188 -9.0D-05  0.00219  0.00076  0.01196  0.03276    126.8
         Total SCF energy =   -488.573299962414
          Total MP2 energy          -489.789365575598
         Total SCF energy =   -488.573284998295
          Total MP2 energy          -489.789366834454
@    6    -489.78936683 -4.5D-05  0.00157  0.00070  0.00971  0.02707    148.9
         Total SCF energy =   -488.573297019757
          Total MP2 energy          -489.789399757784
         Total SCF energy =   -488.573232666026
          Total MP2 energy          -489.789415196335
@    7    -489.78941520 -4.8D-05  0.00238  0.00094  0.01571  0.04999    172.7
         Total SCF energy =   -488.573610290691
          Total MP2 energy          -489.789441644028
         Total SCF energy =   -488.573556924593
          Total MP2 energy          -489.789442619188
@    8    -489.78944262 -2.7D-05  0.00151  0.00061  0.00513  0.00896    194.6
         Total SCF energy =   -488.573397828199
          Total MP2 energy          -489.789458762343
         Total SCF energy =   -488.573397828199
          Total MP2 energy          -489.789458762343
@    9    -489.78945876 -1.6D-05  0.00087  0.00030  0.00640  0.01830    211.4
         Total SCF energy =   -488.573325816373
          Total MP2 energy          -489.789465613409
         Total SCF energy =   -488.573263704365
          Total MP2 energy          -489.789467220408
@   10    -489.78946722 -8.5D-06  0.00060  0.00026  0.00500  0.01134    234.4
         Total SCF energy =   -488.573322283135
          Total MP2 energy          -489.789471978835
         Total SCF energy =   -488.573455276209
          Total MP2 energy          -489.789476916141
@   11    -489.78947692 -9.7D-06  0.00081  0.00035  0.00551  0.01533    257.3
         Total SCF energy =   -488.573431098070
          Total MP2 energy          -489.789482957306
         Total SCF energy =   -488.573381196247
          Total MP2 energy          -489.789486498714
@   12    -489.78948650 -9.6D-06  0.00083  0.00029  0.00772  0.01631    280.8
         Total SCF energy =   -488.573365011839
          Total MP2 energy          -489.789490935015
         Total SCF energy =   -488.573336002884
          Total MP2 energy          -489.789493038163
@   13    -489.78949304 -6.5D-06  0.00081  0.00028  0.00592  0.01399    304.4
         Total SCF energy =   -488.573353777702
          Total MP2 energy          -489.789497963152
         Total SCF energy =   -488.573366671879
          Total MP2 energy          -489.789500034419
@   14    -489.78950003 -7.0D-06  0.00091  0.00033  0.00712  0.01783    327.7
         Total SCF energy =   -488.573375595927
          Total MP2 energy          -489.789505292144
         Total SCF energy =   -488.573375277442
          Total MP2 energy          -489.789510094507
@   15    -489.78951009 -1.0D-05  0.00072  0.00029  0.01104  0.02660    351.5
         Total SCF energy =   -488.573380833314
          Total MP2 energy          -489.789514557497
         Total SCF energy =   -488.573375440755
          Total MP2 energy          -489.789517330649
@   16    -489.78951733 -7.2D-06  0.00060  0.00026  0.00960  0.02503    375.2
         Total SCF energy =   -488.573415787724
          Total MP2 energy          -489.789521549295
         Total SCF energy =   -488.573511754619
          Total MP2 energy          -489.789527542445
@   17    -489.78952754 -1.0D-05  0.00053  0.00018  0.00961  0.03420    398.8
         Total SCF energy =   -488.573419909486
          Total MP2 energy          -489.789529614520
         Total SCF energy =   -488.573392950152
          Total MP2 energy          -489.789529700736
@   18    -489.78952970 -2.2D-06  0.00024  0.00010  0.00558  0.01370    421.2
         Total SCF energy =   -488.573430254403
          Total MP2 energy          -489.789530356958
         Total SCF energy =   -488.573430254403
          Total MP2 energy          -489.789530356958
@   19    -489.78953036 -6.6D-07  0.00011  0.00004  0.00215  0.00521    438.2

 Vector   49  Occ=0.000000D+00  E= 2.849851D-01

 Vector   50  Occ=0.000000D+00  E= 2.904726D-01

 Vector   51  Occ=0.000000D+00  E= 3.052478D-01

 Vector   52  Occ=0.000000D+00  E= 3.146410D-01

 Vector   53  Occ=0.000000D+00  E= 3.356735D-01

 Vector   54  Occ=0.000000D+00  E= 3.488001D-01

 Vector   55  Occ=0.000000D+00  E= 3.570376D-01

 Vector   56  Occ=0.000000D+00  E= 3.639898D-01

 Vector   57  Occ=0.000000D+00  E= 3.769491D-01

 Vector   58  Occ=0.000000D+00  E= 3.833901D-01

 Vector   59  Occ=0.000000D+00  E= 3.891702D-01

 Vector   60  Occ=0.000000D+00  E= 3.932526D-01

 Vector   61  Occ=0.000000D+00  E= 4.093137D-01

 Vector   62  Occ=0.000000D+00  E= 4.161779D-01

 Vector   63  Occ=0.000000D+00  E= 4.209607D-01

 Vector   64  Occ=0.000000D+00  E= 4.328439D-01

 Vector   65  Occ=0.000000D+00  E= 4.419426D-01

 Vector   66  Occ=0.000000D+00  E= 4.641987D-01

 Vector   67  Occ=0.000000D+00  E= 4.897287D-01

 Vector   68  Occ=0.000000D+00  E= 4.948858D-01

 Vector   69  Occ=0.000000D+00  E= 5.030106D-01

 Vector   11  Occ=2.000000D+00  E=-1.431285D+00

 Vector   12  Occ=2.000000D+00  E=-1.092278D+00

 Vector   13  Occ=2.000000D+00  E=-9.883649D-01

 Vector   14  Occ=2.000000D+00  E=-8.719943D-01

 Vector   15  Occ=2.000000D+00  E=-8.322386D-01

 Vector   16  Occ=2.000000D+00  E=-8.304165D-01

 Vector   17  Occ=2.000000D+00  E=-8.037679D-01

 Vector   18  Occ=2.000000D+00  E=-7.235664D-01

 Vector   19  Occ=2.000000D+00  E=-7.208214D-01

 Vector   20  Occ=2.000000D+00  E=-6.876974D-01

 Vector   21  Occ=2.000000D+00  E=-6.801880D-01

 Vector   22  Occ=2.000000D+00  E=-6.737897D-01

 Vector   23  Occ=2.000000D+00  E=-6.613592D-01

 Vector   24  Occ=2.000000D+00  E=-6.461422D-01

 Vector   25  Occ=2.000000D+00  E=-6.157890D-01

 Vector   26  Occ=2.000000D+00  E=-5.846399D-01

 Vector   27  Occ=2.000000D+00  E=-5.489564D-01

 Vector   28  Occ=2.000000D+00  E=-3.830863D-01

 Vector   29  Occ=0.000000D+00  E= 3.588006D-02

 Vector   30  Occ=0.000000D+00  E= 4.593061D-02

 Vector   31  Occ=0.000000D+00  E= 5.542071D-02

 Vector   32  Occ=0.000000D+00  E= 8.506721D-02

 Vector   33  Occ=0.000000D+00  E= 9.146823D-02

 Vector   34  Occ=0.000000D+00  E= 1.045454D-01

 Vector   35  Occ=0.000000D+00  E= 1.065280D-01

 Vector   36  Occ=0.000000D+00  E= 1.269303D-01

 Vector   37  Occ=0.000000D+00  E= 1.387276D-01

 Vector   38  Occ=0.000000D+00  E= 1.454259D-01

 Vector   39  Occ=0.000000D+00  E= 1.556171D-01

 Vector   40  Occ=0.000000D+00  E= 1.658230D-01

 Vector   41  Occ=0.000000D+00  E= 1.694341D-01

 Vector   42  Occ=0.000000D+00  E= 1.824396D-01

 Vector   43  Occ=0.000000D+00  E= 2.018341D-01

 Vector   44  Occ=0.000000D+00  E= 2.199248D-01

 Vector   45  Occ=0.000000D+00  E= 2.373643D-01

 Vector   46  Occ=0.000000D+00  E= 2.486223D-01

 Vector   47  Occ=0.000000D+00  E= 2.646507D-01

 Vector   48  Occ=0.000000D+00  E= 2.788470D-01

 Vector   49  Occ=0.000000D+00  E= 2.849847D-01

 Vector   50  Occ=0.000000D+00  E= 2.904733D-01

 Vector   51  Occ=0.000000D+00  E= 3.052470D-01

 Vector   52  Occ=0.000000D+00  E= 3.146418D-01

 Vector   53  Occ=0.000000D+00  E= 3.356727D-01

 Vector   54  Occ=0.000000D+00  E= 3.488000D-01

 Vector   55  Occ=0.000000D+00  E= 3.570382D-01

 Vector   56  Occ=0.000000D+00  E= 3.639897D-01

 Vector   57  Occ=0.000000D+00  E= 3.769503D-01

 Vector   58  Occ=0.000000D+00  E= 3.833901D-01

 Vector   59  Occ=0.000000D+00  E= 3.891705D-01

 Vector   60  Occ=0.000000D+00  E= 3.932535D-01

 Vector   61  Occ=0.000000D+00  E= 4.093133D-01

 Vector   62  Occ=0.000000D+00  E= 4.161779D-01

 Vector   63  Occ=0.000000D+00  E= 4.209607D-01

 Vector   64  Occ=0.000000D+00  E= 4.328448D-01

 Vector   65  Occ=0.000000D+00  E= 4.419424D-01

 Vector   66  Occ=0.000000D+00  E= 4.641993D-01

 Vector   67  Occ=0.000000D+00  E= 4.897287D-01

 Vector   68  Occ=0.000000D+00  E= 4.948861D-01

 Vector   69  Occ=0.000000D+00  E= 5.030117D-01

       Multipole analysis of the density wrt the origin
       ------------------------------------------------

     L   x y z        total         open         nuclear
     -   - - -        -----         ----         -------
     0   0 0 0     -0.000000      0.000000     56.000000

     1   1 0 0      0.096599      0.000000     -0.247838
     1   0 1 0      0.362861      0.000000      0.494237
     1   0 0 1     -0.206355      0.000000     -2.248577

     2   2 0 0    -26.161543      0.000000    180.772793
     2   1 1 0      1.977238      0.000000      2.790626
     2   1 0 1      1.334791      0.000000      9.840932
     2   0 2 0    -30.100673      0.000000    295.378664
     2   0 1 1     -0.199883      0.000000     -4.455480

 Output coordinates in angstroms (scale by  1.889725989 to convert to a.u.)

  No.       Tag          Charge          X              Y              Z
 ---- ---------------- ---------- -------------- -------------- --------------
    1 O                    8.0000    -1.17863690     1.52447784    -0.11946415
    2 C                    6.0000     0.06023376     0.93781376    -0.04954787
    3 C                    6.0000     1.19611278     1.65324681     0.04257251
    4 H                    1.0000    -1.81023419     0.89627530    -0.50205300
    5 C                    6.0000     0.03889019    -0.56899521    -0.00174288
    6 H                    1.0000     2.15095699     1.14357620     0.15257162
    7 H                    1.0000     1.15601164     2.74260458     0.02180785
    8 F                    9.0000     1.26104921    -1.12292471    -0.11758875
    9 F                    9.0000    -0.74002245    -1.05871788    -1.01852638
   10 F                    9.0000    -0.51771674    -1.02381654     1.15231516

         Total SCF energy =   -488.573422655318
          Total MP2 energy          -489.789530520996
         Total SCF energy =   -488.573415373955
          Total MP2 energy          -489.789530517570
         Total SCF energy =   -488.573394519002
          Total MP2 energy          -489.789530202235
         Total SCF energy =   -488.573442896202
          Total MP2 energy          -489.789530209310
         Total SCF energy =   -488.573401861319
          Total MP2 energy          -489.789530238267
         Total SCF energy =   -488.573435617787
          Total MP2 energy          -489.789530240909
         Total SCF energy =   -488.573416649339
          Total MP2 energy          -489.789530556023
         Total SCF energy =   -488.573421450707
          Total MP2 energy          -489.789530554590
         Total SCF energy =   -488.573433641443
          Total MP2 energy          -489.789530474737
         Total SCF energy =   -488.573404331829
          Total MP2 energy          -489.789530471671
         Total SCF energy =   -488.573438408230
          Total MP2 energy          -489.789530486789
         Total SCF energy =   -488.573399590191
          Total MP2 energy          -489.789530485221
         Total SCF energy =   -488.573428585522
          Total MP2 energy          -489.789530563304
         Total SCF energy =   -488.573409568820
          Total MP2 energy          -489.789530562262
         Total SCF energy =   -488.573416374409
          Total MP2 energy          -489.789530343178
         Total SCF energy =   -488.573421305480
          Total MP2 energy          -489.789530343897
         Total SCF energy =   -488.573393598922
          Total MP2 energy          -489.789530298065
         Total SCF energy =   -488.573443946426
          Total MP2 energy          -489.789530292569
         Total SCF energy =   -488.573419506794
          Total MP2 energy          -489.789530379058
         Total SCF energy =   -488.573418254404
          Total MP2 energy          -489.789530384910
         Total SCF energy =   -488.573411576931
          Total MP2 energy          -489.789530449395
         Total SCF energy =   -488.573426361531
          Total MP2 energy          -489.789530451713
         Total SCF energy =   -488.573424088175
          Total MP2 energy          -489.789530537571
         Total SCF energy =   -488.573414027826
          Total MP2 energy          -489.789530547057
         Total SCF energy =   -488.573417736636
          Total MP2 energy          -489.789530591822
         Total SCF energy =   -488.573420477750
          Total MP2 energy          -489.789530591110
         Total SCF energy =   -488.573419718560
          Total MP2 energy          -489.789530578986
         Total SCF energy =   -488.573418470410
          Total MP2 energy          -489.789530579872
         Total SCF energy =   -488.573410007564
          Total MP2 energy          -489.789530413514
         Total SCF energy =   -488.573427863738
          Total MP2 energy          -489.789530418366
         Total SCF energy =   -488.573419454428
          Total MP2 energy          -489.789530591144
         Total SCF energy =   -488.573418762829
          Total MP2 energy          -489.789530594541
         Total SCF energy =   -488.573387297512
          Total MP2 energy          -489.789530435579
         Total SCF energy =   -488.573450604140
          Total MP2 energy          -489.789530432733
         Total SCF energy =   -488.573431198307
          Total MP2 energy          -489.789530544258
         Total SCF energy =   -488.573406904021
          Total MP2 energy          -489.789530535710
         Total SCF energy =   -488.573422315788
          Total MP2 energy          -489.789530563796
         Total SCF energy =   -488.573415838352
          Total MP2 energy          -489.789530567560
         Total SCF energy =   -488.573438595669
          Total MP2 energy          -489.789530527891
         Total SCF energy =   -488.573399481215
          Total MP2 energy          -489.789530521215
         Total SCF energy =   -488.573429087158
          Total MP2 energy          -489.789530548312
         Total SCF energy =   -488.573409033669
          Total MP2 energy          -489.789530549328
         Total SCF energy =   -488.573444760785
          Total MP2 energy          -489.789530493231
         Total SCF energy =   -488.573393250350
          Total MP2 energy          -489.789530486847
         Total SCF energy =   -488.573433043915
          Total MP2 energy          -489.789530542336
         Total SCF energy =   -488.573405067567
          Total MP2 energy          -489.789530543849
         Total SCF energy =   -488.573428058337
          Total MP2 energy          -489.789530553854
         Total SCF energy =   -488.573410071994
          Total MP2 energy          -489.789530553809
         Total SCF energy =   -488.573389500161
          Total MP2 energy          -489.789530459463
         Total SCF energy =   -488.573448450833
          Total MP2 energy          -489.789530458898
 Zero-Point correction to Energy  =   38.541 kcal/mol  (  0.061420 au)
 Thermal correction to Energy     =   42.787 kcal/mol  (  0.068185 au)
 Thermal correction to Enthalpy   =   43.379 kcal/mol  (  0.069129 au)
 Total Entropy                    =   81.599 cal/mol-K
   - Translational                =   40.038 cal/mol-K (mol. weight = 112.0136)
   - Rotational                   =   27.281 cal/mol-K (symmetry #  =        1)
   - Vibrational                  =   14.280 cal/mol-K
   - Translational                  =    2.979 cal/mol-K
   - Rotational                     =    2.979 cal/mol-K
   - Vibrational                    =   17.987 cal/mol-K
 P.Frequency       -0.00       -0.00       -0.00        0.00        0.00        0.00
 P.Frequency       64.80      241.13      247.91      291.83      368.27      413.17
 P.Frequency      482.38      565.59      603.53      671.53      739.58      770.75
 P.Frequency      879.49      967.42     1109.41     1142.10     1200.35     1282.24
 P.Frequency     1399.84     1440.73     1737.59     3220.00     3339.31     3794.01

 Normal Eigenvalue ||           Projected Infra Red Intensities
  Mode   [cm**-1]  || [atomic units] [(debye/angs)**2] [(KM/mol)] [arbitrary]
 ------ ---------- || -------------- ----------------- ---------- -----------
    1       -0.000 ||    0.000310           0.007         0.303       0.039
    2       -0.000 ||    0.000031           0.001         0.030       0.004
    3       -0.000 ||    0.018175           0.419        17.718       2.255
    4        0.000 ||    0.001076           0.025         1.049       0.134
    5        0.000 ||    0.000624           0.014         0.609       0.077
    6        0.000 ||    0.079724           1.839        77.719       9.893
    7       64.798 ||    0.000322           0.007         0.314       0.040
    8      241.135 ||    0.000602           0.014         0.586       0.075
    9      247.907 ||    0.008201           0.189         7.994       1.018
   10      291.834 ||    0.101920           2.351        99.357      12.647
   11      368.273 ||    0.006265           0.145         6.107       0.777
   12      413.168 ||    0.006724           0.155         6.555       0.834
   13      482.383 ||    0.000152           0.004         0.148       0.019
   14      565.592 ||    0.100521           2.319        97.993      12.473
   15      603.535 ||    0.124532           2.873       121.400      15.453
   16      671.528 ||    0.003112           0.072         3.034       0.386
   17      739.585 ||    0.008459           0.195         8.246       1.050
   18      770.745 ||    0.034660           0.800        33.789       4.301
   19      879.490 ||    0.042254           0.975        41.191       5.243
   20      967.422 ||    0.029129           0.672        28.397       3.615
   21     1109.414 ||    0.162585           3.751       158.496      20.175
   22     1142.101 ||    0.411500           9.494       401.150      51.062
   23     1200.351 ||    0.309636           7.144       301.849      38.422
   24     1282.244 ||    0.193423           4.462       188.559      24.001
   25     1399.841 ||    0.243209           5.611       237.092      30.179
   26     1440.729 ||    0.227442           5.247       221.722      28.223
   27     1737.589 ||    0.185147           4.271       180.491      22.974
   28     3219.995 ||    0.002074           0.048         2.022       0.257
   29     3339.310 ||    0.000275           0.006         0.268       0.034
   30     3794.012 ||    0.115564           2.666       112.658      14.340
 ----------------------------------------------------------------------------

 Total times  cpu:     1345.3s     wall:     1457.6s
