 Gaussian 16, Revision A.03,
 Gaussian 16:  ES64L-G16RevA.03 25-Dec-2016

 -------------------------------------------------------
 # MP2/6-31G** Opt=(Recalc=50) Freq=(vibrot, anharmonic)
 -------------------------------------------------------

 ---
 COH
 ---
 Symbolic Z-matrix:
 Charge =  0 Multiplicity = 1

 SCF Done:  E(RHF) =  -378.355712313     A.U. after   15 cycles
 E2 =    -0.1059538502D+01 EUMP2 =    -0.37941525081474D+03
 E2 =    -0.1059538502D+01 EUMP2 =    -0.37941525081474D+03
 SCF Done:  E(RHF) =  -378.359779359     A.U. after   14 cycles
 E2 =    -0.1061084434D+01 EUMP2 =    -0.37942086379375D+03
 SCF Done:  E(RHF) =  -378.359025948     A.U. after   11 cycles
 E2 =    -0.1061906272D+01 EUMP2 =    -0.37942093221960D+03
 SCF Done:  E(RHF) =  -378.359057991     A.U. after   10 cycles
 E2 =    -0.1061877291D+01 EUMP2 =    -0.37942093528174D+03
 Optimization completed.
    -- Stationary point found.
 Normal termination of Gaussian 16 at Tue Oct 27 13:17:55 2020.

 ----------------------------------------------------------------------
 #N Geom=AllCheck Guess=TCheck SCRF=Check GenChk RMP2(FC)/6-31G(d,p) Fr
 eq
 ----------------------------------------------------------------------

 Structure from the checkpoint file:  "8.chk"
 ---
 COH
 ---
 Charge =  0 Multiplicity = 1

                         Standard orientation:
 ---------------------------------------------------------------------
 Center     Atomic      Atomic             Coordinates (Angstroms)
 Number     Number       Type             X           Y           Z
 ---------------------------------------------------------------------
      1          6           0        0.000000    0.472604    0.000000
      2          6           0        0.536219   -0.782988   -0.000000
      3          6           0       -0.339693   -1.929954   -0.000000
      4          8           0       -1.307614    0.745075    0.000000
      5          8           0       -1.584648   -1.836683    0.000000
      6          6           0        0.850902    1.699920   -0.000000
      7          1           0        1.609862   -0.889130   -0.000000
      8          1           0        0.120497   -2.926573   -0.000000
      9          1           0       -1.763369   -0.137709    0.000000
     10          8           0        2.075111    1.660519   -0.000000
     11          1           0        0.285645    2.644630    0.000000
 ---------------------------------------------------------------------

 SCF Done:  E(RHF) =  -378.359057991     A.U. after    1 cycles
 E2 =    -0.1061877300D+01 EUMP2 =    -0.37942093529030D+03
 E2 =    -0.1061877300D+01 EUMP2 =    -0.37942093529030D+03
 SCF Done:  E(RHF) =  -378.359057517     A.U. after   10 cycles
 E2 =    -0.1061877669D+01 EUMP2 =    -0.37942093518613D+03
 E2 =    -0.1061877669D+01 EUMP2 =    -0.37942093518613D+03
 SCF Done:  E(RHF) =  -378.359057517     A.U. after   10 cycles
 E2 =    -0.1061877669D+01 EUMP2 =    -0.37942093518613D+03
 E2 =    -0.1061877669D+01 EUMP2 =    -0.37942093518613D+03
 SCF Done:  E(RHF) =  -378.359057435     A.U. after   10 cycles
 E2 =    -0.1061877621D+01 EUMP2 =    -0.37942093505538D+03
 E2 =    -0.1061877621D+01 EUMP2 =    -0.37942093505538D+03
 SCF Done:  E(RHF) =  -378.359057435     A.U. after   10 cycles
 E2 =    -0.1061877621D+01 EUMP2 =    -0.37942093505538D+03
 E2 =    -0.1061877621D+01 EUMP2 =    -0.37942093505538D+03
 SCF Done:  E(RHF) =  -378.359046151     A.U. after    9 cycles
 E2 =    -0.1061888937D+01 EUMP2 =    -0.37942093508788D+03
 E2 =    -0.1061888937D+01 EUMP2 =    -0.37942093508788D+03
 E2 =    -0.1061866090D+01 EUMP2 =    -0.37942093491028D+03
 E2 =    -0.1061866090D+01 EUMP2 =    -0.37942093491028D+03
 E2 =    -0.1061877787D+01 EUMP2 =    -0.37942093477419D+03
 SCF Done:  E(RHF) =  -378.358562082     A.U. after   10 cycles
 E2 =    -0.1062352242D+01 EUMP2 =    -0.37942091432365D+03
 E2 =    -0.1062352242D+01 EUMP2 =    -0.37942091432365D+03
 SCF Done:  E(RHF) =  -378.359509651     A.U. after   10 cycles
 E2 =    -0.1061404381D+01 EUMP2 =    -0.37942091403166D+03
 E2 =    -0.1061404381D+01 EUMP2 =    -0.37942091403166D+03
 SCF Done:  E(RHF) =  -378.358871775     A.U. after   11 cycles
 E2 =    -0.1062000917D+01 EUMP2 =    -0.37942087269248D+03
 E2 =    -0.1062000917D+01 EUMP2 =    -0.37942087269248D+03
 SCF Done:  E(RHF) =  -378.359112115     A.U. after   11 cycles
 E2 =    -0.1061757895D+01 EUMP2 =    -0.37942087001086D+03
 E2 =    -0.1061757895D+01 EUMP2 =    -0.37942087001086D+03
 SCF Done:  E(RHF) =  -378.359094287     A.U. after   10 cycles
 E2 =    -0.1061774661D+01 EUMP2 =    -0.37942086894851D+03
 E2 =    -0.1061774661D+01 EUMP2 =    -0.37942086894851D+03
 SCF Done:  E(RHF) =  -378.358887864     A.U. after   10 cycles
 E2 =    -0.1061983690D+01 EUMP2 =    -0.37942087155424D+03
 E2 =    -0.1061983690D+01 EUMP2 =    -0.37942087155424D+03
 SCF Done:  E(RHF) =  -378.358995795     A.U. after   10 cycles
 E2 =    -0.1061863938D+01 EUMP2 =    -0.37942085973326D+03
 E2 =    -0.1061863938D+01 EUMP2 =    -0.37942085973326D+03
 SCF Done:  E(RHF) =  -378.358968998     A.U. after   10 cycles
 E2 =    -0.1061892941D+01 EUMP2 =    -0.37942086193892D+03
 E2 =    -0.1061892941D+01 EUMP2 =    -0.37942086193892D+03
 SCF Done:  E(RHF) =  -378.358520280     A.U. after   10 cycles
 E2 =    -0.1062343403D+01 EUMP2 =    -0.37942086368353D+03
 E2 =    -0.1062343403D+01 EUMP2 =    -0.37942086368353D+03
 SCF Done:  E(RHF) =  -378.359446221     A.U. after   10 cycles
 E2 =    -0.1061410587D+01 EUMP2 =    -0.37942085680760D+03
 E2 =    -0.1061410587D+01 EUMP2 =    -0.37942085680760D+03

 Alpha  occ. eigenvalues --  -20.62424 -20.60557 -20.58320 -11.36928 -11.36279
 Alpha  occ. eigenvalues --  -11.36158 -11.25487  -1.45025  -1.41406  -1.39160
 Alpha  occ. eigenvalues --   -1.08937  -0.97155  -0.86410  -0.79196  -0.73641
 Alpha  occ. eigenvalues --   -0.70250  -0.66090  -0.65228  -0.63993  -0.62475
 Alpha  occ. eigenvalues --   -0.57610  -0.54845  -0.53895  -0.47290  -0.44352
 Alpha  occ. eigenvalues --   -0.37385
 Alpha virt. eigenvalues --    0.03022   0.15797   0.24188   0.27686   0.27860
 Alpha virt. eigenvalues --    0.29421   0.30561   0.37706   0.41352   0.46396
 Alpha virt. eigenvalues --    0.51368   0.53076   0.58053   0.70752   0.73457

 Mulliken charges:
               1
     1  C    0.278970
     2  C   -0.244490
     3  C    0.268659
     4  O   -0.537000
     5  O   -0.457776
     6  C    0.259851
     7  H    0.167133
     8  H    0.118462
     9  H    0.378710
    10  O   -0.358521
    11  H    0.126002
 Sum of Mulliken charges =  -0.00000

 Dipole moment (field-independent basis, Debye):
    X=              0.2642    Y=             -0.6116    Z=             -0.0000  Tot=              0.6662
 Quadrupole moment (field-independent basis, Debye-Ang):
   XX=            -47.3435   YY=            -38.2968   ZZ=            -39.4016
   XY=             -6.1047   XZ=              0.0000   YZ=             -0.0000

  Exact polarizability:  56.064   4.572  71.705  -0.000  -0.000  21.071
 Approx polarizability:  53.505  -0.659  53.453  -0.000  -0.000  23.200

                      1                      2                      3
                     A"                     A"                     A'
 Frequencies --    121.5959               182.9227               205.3885
 Red. masses --      6.3136                 2.8268                 6.8894
 Frc consts  --      0.0550                 0.0557                 0.1712
 IR Inten    --     13.3834                 6.1840                10.5882

                      4                      5                      6
                     A"                     A'                     A'
 Frequencies --    275.0088               285.6351               456.1248
 Red. masses --      2.6310                 9.0976                 6.0446
 Frc consts  --      0.1172                 0.4373                 0.7409
 IR Inten    --      3.2316                 1.8926                19.7483

                      7                      8                      9
                     A"                     A'                     A'
 Frequencies --    545.8414               605.9567               804.2288
 Red. masses --      4.4355                 9.7991                 4.9958
 Frc consts  --      0.7786                 2.1199                 1.9038
 IR Inten    --      0.0855                45.3220                 2.3739

                     10                     11                     12
                     A"                     A"                     A'
 Frequencies --    804.4789               898.1461               948.1667
 Red. masses --      1.1103                 1.1461                 5.1263
 Frc consts  --      0.4234                 0.5447                 2.7153
 IR Inten    --     51.0888                94.7722                 0.5870

                     13                     14                     15
                     A"                     A"                     A'
 Frequencies --   1008.5597              1025.2989              1085.7270
 Red. masses --      1.7097                 1.6702                 1.6820
 Frc consts  --      1.0246                 1.0345                 1.1682
 IR Inten    --      0.4770                 0.3613                54.2788

                     16                     17                     18
                     A'                     A'                     A'
 Frequencies --   1212.5088              1397.0575              1419.8358
 Red. masses --      2.3882                 1.4109                 1.4422
 Frc consts  --      2.0686                 1.6225                 1.7130
 IR Inten    --    215.7975                15.2230               143.0998

                     19                     20                     21
                     A'                     A'                     A'
 Frequencies --   1444.7935              1491.6218              1682.6852
 Red. masses --      1.3174                 2.7995                 4.3111
 Frc consts  --      1.6202                 3.6699                 7.1918
 IR Inten    --     17.5706                27.8003               124.1021

                     22                     23                     24
                     A'                     A'                     A'
 Frequencies --   1711.8023              1767.3407              3075.5332
 Red. masses --      7.3929                 7.7778                 1.0879
 Frc consts  --     12.7636                14.3135                 6.0626
 IR Inten    --    145.6446                44.1816                88.2912

                     25                     26                     27
                     A'                     A'                     A'
 Frequencies --   3101.8813              3318.8960              3331.7800
 Red. masses --      1.0888                 1.0920                 1.0682
 Frc consts  --      6.1724                 7.0868                 6.9863
 IR Inten    --     95.9688                10.2783               132.6282

 - Thermochemistry -
 -------------------
 Temperature   298.150 Kelvin.  Pressure   1.00000 Atm.
 Atom     1 has atomic number  6 and mass  12.00000

 Molecular mass:   100.01604 amu.
 Principal axes and moments of inertia in atomic units:
                           1         2         3
     Eigenvalues --   267.894641048.345971316.24061
           X            0.60780   0.79409   0.00000
           Y            0.79409  -0.60780   0.00000
           Z           -0.00000  -0.00000   1.00000
 This molecule is an asymmetric top.
 Rotational symmetry number  1.
 Rotational temperatures (Kelvin)      0.32331     0.08262     0.06580
 Rotational constants (GHZ):           6.73676     1.72151     1.37113
 Zero-point vibrational energy     204614.2 (Joules/Mol)
                                   48.90396 (Kcal/Mol)
 Warning -- explicit consideration of   8 degrees of freedom as
           vibrations may cause significant error
 Vibrational temperatures:    174.95   263.18   295.51   395.68   410.97
          (Kelvin)            656.26   785.34   871.84  1157.11  1157.47
                             1292.23  1364.20  1451.09  1475.18  1562.12
                             1744.53  2010.05  2042.83  2078.74  2146.11
                             2421.01  2462.90  2542.81  4425.01  4462.92
                             4775.15  4793.69

 Zero-point correction=                           0.077933 (Hartree/Particle)
 Thermal correction to Energy=                    0.084495
 Thermal correction to Enthalpy=                  0.085440
 Thermal correction to Gibbs Free Energy=         0.047223
 Sum of electronic and zero-point Energies=           -379.343002
 Sum of electronic and thermal Energies=              -379.336440
 Sum of electronic and thermal Enthalpies=            -379.335496
 Sum of electronic and thermal Free Energies=         -379.373713

                     E (Thermal)             CV                S
                      KCal/Mol        Cal/Mol-Kelvin    Cal/Mol-Kelvin
 Total                   53.022             22.435             80.434
 Electronic               0.000              0.000              0.000
 Translational            0.889              2.981             39.718
 Rotational               0.889              2.981             27.405
 Vibrational             51.244             16.473             13.311
 Vibration     1          0.609              1.931              3.075
 Vibration     2          0.630              1.863              2.298
 Vibration     3          0.640              1.832              2.084
 Vibration     4          0.677              1.720              1.565
 Vibration     5          0.683              1.700              1.500
 Vibration     6          0.814              1.347              0.777
 Vibration     7          0.901              1.149              0.553
 Vibration     8          0.965              1.019              0.440

 Error termination via Lnk1e in /sw/contrib/gaussian/g16/A03/g16/l717.exe at Tue Oct 27 14:51:48 2020.
