============================== echo of input deck ==============================
echo
start 8cC
title "H,CHO,H Chelate"
charge 0

geometry
 zmatrix
  O
  C  1  R1
  C  2  R2  1  A1
  C  3  R3  2  A2  1  D0
  O  4  R4  3  A3  2  D0
  H  1  R5  2  A4  3  D0
  H  2  R6  3  A5  4  D180
  C  3  R7  2  A6  1  D180
  H  4  R8  3  A7  2  D180
  O  8  R9  3  A8  2  D0
  H  8  R10 3  A9  2  D180
  variables
    R1  1.329
    R2  1.363
    A1  124.5
    R3  1.440
    A2  119.5
    R4  1.249
    A3  123.5
    R5  0.994
    A4  105.4
    R6  1.085
    A5  122.5
    R7  1.478
    A6  120.0
    R8  1.099
    A7  117.6
    R9  1.250
    A8  120.0
    R10 1.000
    A9  120.0
  constants
    D0  0.000
    D180 180.0
 end
end

basis spherical
 * library aug-cc-pVDZ
end

set lindep:n_dep 0

set cphf:maxsub 95
set cphf:maxiter 999
set int:acc_std 1d-16
set fock:densityscreen f

scf
 maxiter 99
 vectors input atomic
 thresh 1d-9
 tol2e 1d-15
end

mp2
 freeze atomic
 tight
end

driver
 clear
 maxiter 99
 tight
end

set "mp2:aotol2e fock" 1d-15
set mp2:aotol2e 1d-15
set mp2:backtol 1d-15

task mp2 optimize
task mp2 frequencies

================================================================================

         Total SCF energy =   -378.406110007271
          Total MP2 energy          -379.526431123349
@ Step       Energy      Delta E   Gmax     Grms     Xrms     Xmax   Walltime
@ ---- ---------------- -------- -------- -------- -------- -------- --------
@    0    -379.52643112  0.0D+00  0.09473  0.01932  0.00000  0.00000    179.9
         Total SCF energy =   -378.413590482244
          Total MP2 energy          -379.537146031304
         Total SCF energy =   -378.414234908324
          Total MP2 energy          -379.537225988652
@    1    -379.53722599 -1.1D-02  0.00899  0.00393  0.04225  0.11836    416.6
         Total SCF energy =   -378.412447848899
          Total MP2 energy          -379.535326234845
         Total SCF energy =   -378.414970785200
          Total MP2 energy          -379.537797860398
@    2    -379.53779786 -5.7D-04  0.00535  0.00177  0.02936  0.07405    657.2
         Total SCF energy =   -378.415005079398
          Total MP2 energy          -379.537679258568
         Total SCF energy =   -378.415229007524
          Total MP2 energy          -379.537973662141
@    3    -379.53797366 -1.8D-04  0.00324  0.00086  0.01163  0.04152    894.2
         Total SCF energy =   -378.415491517722
          Total MP2 energy          -379.538041652494
         Total SCF energy =   -378.415451666404
          Total MP2 energy          -379.538052047334
@    4    -379.53805205 -7.8D-05  0.00090  0.00038  0.00961  0.02520   1116.8
         Total SCF energy =   -378.415171078742
          Total MP2 energy          -379.538052768590
         Total SCF energy =   -378.415311965988
          Total MP2 energy          -379.538057550695
@    5    -379.53805755 -5.5D-06  0.00041  0.00015  0.00284  0.00820   1338.9
         Total SCF energy =   -378.415159294917
          Total MP2 energy          -379.538058344072
         Total SCF energy =   -378.415194005634
          Total MP2 energy          -379.538058417527
@    6    -379.53805842 -8.7D-07  0.00019  0.00007  0.00071  0.00256   1546.9
         Total SCF energy =   -378.415171145904
          Total MP2 energy          -379.538058672387
         Total SCF energy =   -378.415173912710
          Total MP2 energy          -379.538058677146
@    7    -379.53805868 -2.6D-07  0.00007  0.00003  0.00045  0.00142   1753.2
         Total SCF energy =   -378.415183281238
          Total MP2 energy          -379.538058699784
         Total SCF energy =   -378.415183281238
          Total MP2 energy          -379.538058699784
@    8    -379.53805870 -2.3D-08  0.00006  0.00002  0.00027  0.00093   1909.8
         Total SCF energy =   -378.415178866571
          Total MP2 energy          -379.538058716917
         Total SCF energy =   -378.415178866571
          Total MP2 energy          -379.538058716917
@    9    -379.53805872 -1.7D-08  0.00001  0.00000  0.00014  0.00040   2064.4
         Total SCF energy =   -378.415176950462

 Vector   60  Occ=0.000000D+00  E= 3.435088D-01  Symmetry=a'

 Vector   61  Occ=0.000000D+00  E= 3.600212D-01  Symmetry=a'

 Vector   62  Occ=0.000000D+00  E= 3.805056D-01  Symmetry=a'

 Vector   63  Occ=0.000000D+00  E= 3.849094D-01  Symmetry=a'

 Vector   64  Occ=0.000000D+00  E= 4.012684D-01  Symmetry=a"

 Vector   65  Occ=0.000000D+00  E= 4.041303D-01  Symmetry=a"

 Vector   66  Occ=0.000000D+00  E= 4.086788D-01  Symmetry=a'

 Vector   67  Occ=0.000000D+00  E= 4.358309D-01  Symmetry=a"

 Vector   68  Occ=0.000000D+00  E= 4.479376D-01  Symmetry=a'

 Vector   69  Occ=0.000000D+00  E= 4.569393D-01  Symmetry=a'

 Vector   70  Occ=0.000000D+00  E= 4.764521D-01  Symmetry=a"

 Vector   71  Occ=0.000000D+00  E= 4.779385D-01  Symmetry=a'

 Vector   72  Occ=0.000000D+00  E= 4.876377D-01  Symmetry=a'

 Vector   73  Occ=0.000000D+00  E= 5.037740D-01  Symmetry=a'

          Total MP2 energy          -379.538058717421
         Total SCF energy =   -378.415176950462
          Total MP2 energy          -379.538058717421
@   10    -379.53805872 -5.0D-10  0.00001  0.00000  0.00003  0.00008   2217.1
         Total SCF energy =   -378.415178324617

 Vector    8  Occ=2.000000D+00  E=-1.471057D+00  Symmetry=a'

 Vector    9  Occ=2.000000D+00  E=-1.406781D+00  Symmetry=a'

 Vector   10  Occ=2.000000D+00  E=-1.393952D+00  Symmetry=a'

 Vector   11  Occ=2.000000D+00  E=-1.111836D+00  Symmetry=a'

 Vector   12  Occ=2.000000D+00  E=-9.417235D-01  Symmetry=a'

 Vector   13  Occ=2.000000D+00  E=-8.721723D-01  Symmetry=a'

 Vector   14  Occ=2.000000D+00  E=-8.465261D-01  Symmetry=a'

 Vector   15  Occ=2.000000D+00  E=-7.381556D-01  Symmetry=a'

 Vector   16  Occ=2.000000D+00  E=-6.920796D-01  Symmetry=a'

 Vector   17  Occ=2.000000D+00  E=-6.707037D-01  Symmetry=a'

 Vector   18  Occ=2.000000D+00  E=-6.675659D-01  Symmetry=a'

 Vector   19  Occ=2.000000D+00  E=-6.314007D-01  Symmetry=a"

 Vector   20  Occ=2.000000D+00  E=-6.280424D-01  Symmetry=a'

 Vector   21  Occ=2.000000D+00  E=-6.060819D-01  Symmetry=a'

 Vector   22  Occ=2.000000D+00  E=-5.639443D-01  Symmetry=a"

 Vector   23  Occ=2.000000D+00  E=-5.405393D-01  Symmetry=a"

 Vector   24  Occ=2.000000D+00  E=-4.643934D-01  Symmetry=a'

 Vector   25  Occ=2.000000D+00  E=-4.399425D-01  Symmetry=a'

 Vector   26  Occ=2.000000D+00  E=-3.843345D-01  Symmetry=a"

 Vector   27  Occ=0.000000D+00  E= 3.067333D-02  Symmetry=a'

 Vector   28  Occ=0.000000D+00  E= 3.494508D-02  Symmetry=a"

 Vector   29  Occ=0.000000D+00  E= 4.185502D-02  Symmetry=a'

 Vector   30  Occ=0.000000D+00  E= 5.204878D-02  Symmetry=a'

 Vector   31  Occ=0.000000D+00  E= 6.369930D-02  Symmetry=a'

 Vector   32  Occ=0.000000D+00  E= 7.535699D-02  Symmetry=a"

 Vector   33  Occ=0.000000D+00  E= 9.231874D-02  Symmetry=a'

 Vector   34  Occ=0.000000D+00  E= 1.011747D-01  Symmetry=a"

 Vector   35  Occ=0.000000D+00  E= 1.020485D-01  Symmetry=a'

 Vector   36  Occ=0.000000D+00  E= 1.277402D-01  Symmetry=a'

 Vector   37  Occ=0.000000D+00  E= 1.318721D-01  Symmetry=a"

 Vector   38  Occ=0.000000D+00  E= 1.361211D-01  Symmetry=a"

 Vector   39  Occ=0.000000D+00  E= 1.375211D-01  Symmetry=a'

 Vector   40  Occ=0.000000D+00  E= 1.470004D-01  Symmetry=a'

 Vector   41  Occ=0.000000D+00  E= 1.565591D-01  Symmetry=a'

 Vector   42  Occ=0.000000D+00  E= 1.608662D-01  Symmetry=a'

 Vector   43  Occ=0.000000D+00  E= 1.683781D-01  Symmetry=a'

 Vector   44  Occ=0.000000D+00  E= 1.789669D-01  Symmetry=a'

 Vector   45  Occ=0.000000D+00  E= 1.879261D-01  Symmetry=a"

 Vector   46  Occ=0.000000D+00  E= 2.195703D-01  Symmetry=a'

 Vector   47  Occ=0.000000D+00  E= 2.257579D-01  Symmetry=a"

 Vector   48  Occ=0.000000D+00  E= 2.466924D-01  Symmetry=a'

 Vector   49  Occ=0.000000D+00  E= 2.503787D-01  Symmetry=a'

 Vector   50  Occ=0.000000D+00  E= 2.539623D-01  Symmetry=a"

 Vector   51  Occ=0.000000D+00  E= 2.549166D-01  Symmetry=a'

 Vector   52  Occ=0.000000D+00  E= 2.684909D-01  Symmetry=a'

 Vector   53  Occ=0.000000D+00  E= 2.818562D-01  Symmetry=a"

 Vector   54  Occ=0.000000D+00  E= 2.872337D-01  Symmetry=a'

 Vector   55  Occ=0.000000D+00  E= 3.155320D-01  Symmetry=a'

 Vector   56  Occ=0.000000D+00  E= 3.175795D-01  Symmetry=a"

 Vector   57  Occ=0.000000D+00  E= 3.204966D-01  Symmetry=a'

 Vector   58  Occ=0.000000D+00  E= 3.232764D-01  Symmetry=a'

 Vector   59  Occ=0.000000D+00  E= 3.360290D-01  Symmetry=a'

 Vector   60  Occ=0.000000D+00  E= 3.435089D-01  Symmetry=a'

 Vector   61  Occ=0.000000D+00  E= 3.600222D-01  Symmetry=a'

 Vector   62  Occ=0.000000D+00  E= 3.805065D-01  Symmetry=a'

 Vector   63  Occ=0.000000D+00  E= 3.849097D-01  Symmetry=a'

 Vector   64  Occ=0.000000D+00  E= 4.012696D-01  Symmetry=a"

 Vector   65  Occ=0.000000D+00  E= 4.041322D-01  Symmetry=a"

 Vector   66  Occ=0.000000D+00  E= 4.086781D-01  Symmetry=a'

 Vector   67  Occ=0.000000D+00  E= 4.358309D-01  Symmetry=a"

 Vector   68  Occ=0.000000D+00  E= 4.479363D-01  Symmetry=a'

 Vector   69  Occ=0.000000D+00  E= 4.569390D-01  Symmetry=a'

 Vector   70  Occ=0.000000D+00  E= 4.764524D-01  Symmetry=a"

 Vector   71  Occ=0.000000D+00  E= 4.779393D-01  Symmetry=a'

 Vector   72  Occ=0.000000D+00  E= 4.876394D-01  Symmetry=a'

 Vector   73  Occ=0.000000D+00  E= 5.037751D-01  Symmetry=a'

       Multipole analysis of the density wrt the origin
       ------------------------------------------------

     L   x y z        total         open         nuclear
     -   - - -        -----         ----         -------
     0   0 0 0     -0.000000      0.000000     52.000000

     1   1 0 0      0.522657      0.000000     -0.665248
     1   0 1 0      0.140026      0.000000     -0.577952
     1   0 0 1     -0.000000      0.000000      0.000000

     2   2 0 0    -26.450220      0.000000    205.382131
     2   1 1 0     -2.514599      0.000000     -7.150546
     2   1 0 1     -0.000000      0.000000      0.000000
     2   0 2 0    -42.165948      0.000000    467.875821
     2   0 1 1      0.000000      0.000000      0.000000

          Total MP2 energy          -379.538058717462
         Total SCF energy =   -378.415178324617
          Total MP2 energy          -379.538058717462
@   11    -379.53805872 -4.1D-11  0.00000  0.00000  0.00001  0.00004   2368.2
@   11    -379.53805872 -4.1D-11  0.00000  0.00000  0.00001  0.00004   2368.2

 Output coordinates in angstroms (scale by  1.889725989 to convert to a.u.)

  No.       Tag          Charge          X              Y              Z
 ---- ---------------- ---------- -------------- -------------- --------------
    1 O                    8.0000    -1.57113755     1.33962870     0.00000000
    2 C                    6.0000    -1.14167279     0.09386869     0.00000000
    3 C                    6.0000     0.20160813    -0.25217268     0.00000000
    4 C                    6.0000     1.19325259     0.80662853     0.00000000
    5 O                    8.0000     0.89595227     2.02367332     0.00000000
    6 H                    1.0000    -0.73867550     1.91073648     0.00000000
    7 H                    1.0000    -1.92693435    -0.66916577     0.00000000
    8 C                    6.0000     0.60473641    -1.67071429     0.00000000
    9 H                    1.0000     2.26312885     0.51103973     0.00000000
   10 O                    8.0000    -0.17536942    -2.62325236     0.00000000
   11 H                    1.0000     1.70733863    -1.84450847     0.00000000

         Total SCF energy =   -378.415178324617
          Total MP2 energy          -379.538058717462
         Total SCF energy =   -378.415215415923
          Total MP2 energy          -379.538058499742
         Total SCF energy =   -378.415140754103
          Total MP2 energy          -379.538058498677
         Total SCF energy =   -378.415158837257
          Total MP2 energy          -379.538058439311
         Total SCF energy =   -378.415197263370
          Total MP2 energy          -379.538058438247
         Total SCF energy =   -378.415178279224
          Total MP2 energy          -379.538058688996
         Total SCF energy =   -378.415178279224
          Total MP2 energy          -379.538058688996
         Total SCF energy =   -378.415173070748
          Total MP2 energy          -379.538058319442
         Total SCF energy =   -378.415182770740
          Total MP2 energy          -379.538058317293
         Total SCF energy =   -378.415197834868
          Total MP2 energy          -379.538058348982
         Total SCF energy =   -378.415158071882
          Total MP2 energy          -379.538058346817
         Total SCF energy =   -378.415178210714
          Total MP2 energy          -379.538058634524
         Total SCF energy =   -378.415178210714
          Total MP2 energy          -379.538058634524
         Total SCF energy =   -378.415170341768
          Total MP2 energy          -379.538058345095
         Total SCF energy =   -378.415185592939
          Total MP2 energy          -379.538058346539
         Total SCF energy =   -378.415177585791
          Total MP2 energy          -379.538058391329
         Total SCF energy =   -378.415178355224
          Total MP2 energy          -379.538058387817
         Total SCF energy =   -378.415178261063
          Total MP2 energy          -379.538058667274
         Total SCF energy =   -378.415178261063
          Total MP2 energy          -379.538058667273
         Total SCF energy =   -378.415169137800
          Total MP2 energy          -379.538058382786
         Total SCF energy =   -378.415186784712
          Total MP2 energy          -379.538058379336
         Total SCF energy =   -378.415224053460
          Total MP2 energy          -379.538058314355
         Total SCF energy =   -378.415131794604
          Total MP2 energy          -379.538058318569
         Total SCF energy =   -378.415178199195
          Total MP2 energy          -379.538058625574
         Total SCF energy =   -378.415178199195
          Total MP2 energy          -379.538058625575
         Total SCF energy =   -378.415193884455
          Total MP2 energy          -379.538058646802
         Total SCF energy =   -378.415162599952
          Total MP2 energy          -379.538058649452
         Total SCF energy =   -378.415120736140
          Total MP2 energy          -379.538058396091
         Total SCF energy =   -378.415235275113
          Total MP2 energy          -379.538058386757
         Total SCF energy =   -378.415178292898
          Total MP2 energy          -379.538058699906
         Total SCF energy =   -378.415178292898
          Total MP2 energy          -379.538058699906
         Total SCF energy =   -378.415151794236
          Total MP2 energy          -379.538058613578
         Total SCF energy =   -378.415204643686
          Total MP2 energy          -379.538058615618
         Total SCF energy =   -378.415167238288
          Total MP2 energy          -379.538058616807
         Total SCF energy =   -378.415189199695
          Total MP2 energy          -379.538058623434
         Total SCF energy =   -378.415178299494
          Total MP2 energy          -379.538058698932
         Total SCF energy =   -378.415178299494
          Total MP2 energy          -379.538058698932
         Total SCF energy =   -378.415186226271
          Total MP2 energy          -379.538058606224
         Total SCF energy =   -378.415170194027
          Total MP2 energy          -379.538058606736
         Total SCF energy =   -378.415185213672
          Total MP2 energy          -379.538058614302
         Total SCF energy =   -378.415171219174
          Total MP2 energy          -379.538058613307
         Total SCF energy =   -378.415178305407
          Total MP2 energy          -379.538058703513
         Total SCF energy =   -378.415178305407
          Total MP2 energy          -379.538058703513
         Total SCF energy =   -378.415147992760
          Total MP2 energy          -379.538058349754
         Total SCF energy =   -378.415207864741
          Total MP2 energy          -379.538058344368
         Total SCF energy =   -378.415140986748
          Total MP2 energy          -379.538058350863
         Total SCF energy =   -378.415214899672
          Total MP2 energy          -379.538058347174
         Total SCF energy =   -378.415178200203
          Total MP2 energy          -379.538058627417
         Total SCF energy =   -378.415178200203
          Total MP2 energy          -379.538058627416
         Total SCF energy =   -378.415167609689
          Total MP2 energy          -379.538058562217
         Total SCF energy =   -378.415188722802
          Total MP2 energy          -379.538058561762
         Total SCF energy =   -378.415182459459
          Total MP2 energy          -379.538058674698
         Total SCF energy =   -378.415174095512
          Total MP2 energy          -379.538058677380
         Total SCF energy =   -378.415178307963
          Total MP2 energy          -379.538058705690
         Total SCF energy =   -378.415178307962
          Total MP2 energy          -379.538058705690
         Total SCF energy =   -378.415217495327
          Total MP2 energy          -379.538058538689
         Total SCF energy =   -378.415138785932
          Total MP2 energy          -379.538058544153
         Total SCF energy =   -378.415226020609
          Total MP2 energy          -379.538058469307
         Total SCF energy =   -378.415130127649
          Total MP2 energy          -379.538058477479
         Total SCF energy =   -378.415178297254
          Total MP2 energy          -379.538058705752
         Total SCF energy =   -378.415178297254
          Total MP2 energy          -379.538058705753
         Total SCF energy =   -378.415166041463
          Total MP2 energy          -379.538058565201
         Total SCF energy =   -378.415190296773
          Total MP2 energy          -379.538058565598
         Total SCF energy =   -378.415177948907
          Total MP2 energy          -379.538058679984
         Total SCF energy =   -378.415178613294
          Total MP2 energy          -379.538058679129
         Total SCF energy =   -378.415178308881
          Total MP2 energy          -379.538058706695
         Total SCF energy =   -378.415178308881
          Total MP2 energy          -379.538058706696
 Zero-Point correction to Energy  =   48.335 kcal/mol  (  0.077026 au)
 Thermal correction to Energy     =   52.404 kcal/mol  (  0.083512 au)
 Thermal correction to Enthalpy   =   52.997 kcal/mol  (  0.084455 au)
 Total Entropy                    =   79.977 cal/mol-K
   - Translational                =   39.701 cal/mol-K (mol. weight = 100.0160)
   - Rotational                   =   27.531 cal/mol-K (symmetry #  =        1)
   - Vibrational                  =   12.746 cal/mol-K
   - Translational                  =    2.979 cal/mol-K
   - Rotational                     =    2.979 cal/mol-K
   - Vibrational                    =   16.312 cal/mol-K
 P.Frequency       -0.00       -0.00       -0.00       -0.00        0.00        0.00
 P.Frequency      125.57      211.29      263.21      287.32      304.53      389.71
 P.Frequency      480.46      523.47      748.49      953.24      959.05      992.98
 P.Frequency     1031.52     1084.06     1226.88     1289.87     1378.86     1405.33
 P.Frequency     1427.50     1449.72     1642.35     1673.18     1724.45     2962.57
 P.Frequency     3013.68     3045.01     3232.58

 Normal Eigenvalue ||           Projected Infra Red Intensities
  Mode   [cm**-1]  || [atomic units] [(debye/angs)**2] [(KM/mol)] [arbitrary]
 ------ ---------- || -------------- ----------------- ---------- -----------
    1       -0.000 ||    0.000037           0.001         0.036       0.006
    2       -0.000 ||    0.000207           0.005         0.202       0.034
    3       -0.000 ||    0.000291           0.007         0.284       0.048
    4       -0.000 ||    0.000043           0.001         0.042       0.007
    5        0.000 ||    0.000013           0.000         0.012       0.002
    6        0.000 ||    0.000089           0.002         0.087       0.015
    7      125.565 ||    0.017161           0.396        16.729       2.815
    8      211.290 ||    0.009303           0.215         9.069       1.526
    9      263.206 ||    0.000486           0.011         0.473       0.080
   10      287.316 ||    0.010638           0.245        10.371       1.745
   11      304.525 ||    0.002429           0.056         2.368       0.398
   12      389.710 ||    0.003244           0.075         3.162       0.532
   13      480.455 ||    0.003741           0.086         3.647       0.614
   14      523.467 ||    0.013821           0.319        13.474       2.267
   15      748.489 ||    0.073738           1.701        71.884      12.094
   16      953.242 ||    0.015098           0.348        14.719       2.476
   17      959.048 ||    0.033787           0.779        32.937       5.541
   18      992.983 ||    0.010268           0.237        10.010       1.684
   19     1031.518 ||    0.003740           0.086         3.646       0.613
   20     1084.064 ||    0.063035           1.454        61.449      10.338
   21     1226.878 ||    0.146179           3.372       142.503      23.975
   22     1289.869 ||    0.118851           2.742       115.862      19.493
   23     1378.858 ||    0.008542           0.197         8.327       1.401
   24     1405.332 ||    0.009668           0.223         9.425       1.586
   25     1427.500 ||    0.038367           0.885        37.402       6.293
   26     1449.722 ||    0.030125           0.695        29.367       4.941
   27     1642.348 ||    0.236521           5.457       230.573      38.792
   28     1673.177 ||    0.601742          13.883       586.608      98.691
   29     1724.453 ||    0.139008           3.207       135.512      22.799
   30     2962.566 ||    0.062262           1.436        60.696      10.212
   31     3013.685 ||    0.318634           7.351       310.620      52.259
   32     3045.011 ||    0.039029           0.900        38.047       6.401
   33     3232.583 ||    0.001982           0.046         1.932       0.325
 ----------------------------------------------------------------------------

 Total times  cpu:    11895.2s     wall:    12072.3s
