============================== echo of input deck ==============================
echo
start 8cO
title "H,CHO,H Open"
charge 0

geometry
 zmatrix
  O
  C  1  R1
  C  2  R2  1  A1
  C  3  R3  2  A2  1  D0
  O  4  R4  3  A3  2  D0
  H  1  R5  2  A4  3  D180
  H  2  R6  3  A5  4  D180
  C  3  R7  2  A6  1  D180
  H  4  R8  3  A7  2  D180
  O  8  R9  3  A8  2  D0
  H  8  R10 3  A9  2  D180
  variables
    R1  1.329
    R2  1.363
    A1  124.5
    R3  1.440
    A2  119.5
    R4  1.249
    A3  123.5
    R5  0.994
    A4  105.4
    R6  1.085
    A5  122.5
    R7  1.478
    A6  120.0
    R8  1.099
    A7  117.6
    R9  1.250
    A8  120.0
    R10 1.000
    A9  120.0
  constants
    D0  0.000
    D180 180.0
 end
end

basis spherical
 * library aug-cc-pVDZ
end

set lindep:n_dep 0

set cphf:maxsub 95
set cphf:maxiter 999
set int:acc_std 1d-16
set fock:densityscreen f

scf
 maxiter 99
 vectors input atomic
 thresh 1d-9
 tol2e 1d-15
end

mp2
 freeze atomic
 tight
end

driver
 clear
 maxiter 99
 tight
end

set "mp2:aotol2e fock" 1d-15
set mp2:aotol2e 1d-15
set mp2:backtol 1d-15

task mp2 optimize
task mp2 frequencies

================================================================================

         Total SCF energy =   -378.381026367638
          Total MP2 energy          -379.502252781317
@ Step       Energy      Delta E   Gmax     Grms     Xrms     Xmax   Walltime
@ ---- ---------------- -------- -------- -------- -------- -------- --------
@    0    -379.50225278  0.0D+00  0.09431  0.02097  0.00000  0.00000    177.2
         Total SCF energy =   -378.395206633581
          Total MP2 energy          -379.516124051516
         Total SCF energy =   -378.395966154496
          Total MP2 energy          -379.516734266154
@    1    -379.51673427 -1.4D-02  0.01112  0.00434  0.09337  0.28939    417.6
         Total SCF energy =   -378.396915846383
          Total MP2 energy          -379.517174884962
         Total SCF energy =   -378.397750886811
          Total MP2 energy          -379.518127549248
@    2    -379.51812755 -1.4D-03  0.00379  0.00164  0.02840  0.09211    645.9
         Total SCF energy =   -378.398749527558
          Total MP2 energy          -379.518250064526
         Total SCF energy =   -378.398524838263
          Total MP2 energy          -379.518273566453
@    3    -379.51827357 -1.5D-04  0.00157  0.00052  0.01271  0.03390    870.6
         Total SCF energy =   -378.398640781040
          Total MP2 energy          -379.518285376845
         Total SCF energy =   -378.398611646373
          Total MP2 energy          -379.518298294358
@    4    -379.51829829 -2.5D-05  0.00054  0.00019  0.00601  0.02063   1087.2
         Total SCF energy =   -378.398532366288
          Total MP2 energy          -379.518299195868
         Total SCF energy =   -378.398553486611
          Total MP2 energy          -379.518299325253
@    5    -379.51829933 -1.0D-06  0.00008  0.00003  0.00088  0.00189   1281.6
         Total SCF energy =   -378.398555708835
          Total MP2 energy          -379.518299357013
         Total SCF energy =   -378.398555708835
          Total MP2 energy          -379.518299357013
@    6    -379.51829936 -3.2D-08  0.00004  0.00002  0.00032  0.00097   1432.1
         Total SCF energy =   -378.398556436878
          Total MP2 energy          -379.518299371427
         Total SCF energy =   -378.398556436878
          Total MP2 energy          -379.518299371427
@    7    -379.51829937 -1.4D-08  0.00003  0.00001  0.00024  0.00059   1582.9
         Total SCF energy =   -378.398553774782
          Total MP2 energy          -379.518299376174
         Total SCF energy =   -378.398553774782
          Total MP2 energy          -379.518299376174
@    8    -379.51829938 -4.7D-09  0.00001  0.00000  0.00008  0.00018   1733.7
         Total SCF energy =   -378.398554307193
          Total MP2 energy          -379.518299376410
         Total SCF energy =   -378.398554307193
          Total MP2 energy          -379.518299376410
@    9    -379.51829938 -2.4D-10  0.00000  0.00000  0.00002  0.00007   1880.1
         Total SCF energy =   -378.398554615174
          Total MP2 energy          -379.518299376339
         Total SCF energy =   -378.398554615174
          Total MP2 energy          -379.518299376339
@   10    -379.51829938  7.1D-11  0.00000  0.00000  0.00002  0.00006   2026.7
         Total SCF energy =   -378.398553975270
          Total MP2 energy          -379.518299376096
         Total SCF energy =   -378.398553975270
          Total MP2 energy          -379.518299376096
@   11    -379.51829938  2.4D-10  0.00001  0.00000  0.00003  0.00011   2173.1
         Total SCF energy =   -378.398555008009
          Total MP2 energy          -379.518299375528
         Total SCF energy =   -378.398555008009
          Total MP2 energy          -379.518299375528
@   12    -379.51829938  5.7D-10  0.00001  0.00000  0.00005  0.00016   2321.5
         Total SCF energy =   -378.398553422426

 Vector   60  Occ=0.000000D+00  E= 3.492484D-01  Symmetry=a'

 Vector   61  Occ=0.000000D+00  E= 3.624846D-01  Symmetry=a'

 Vector   62  Occ=0.000000D+00  E= 3.807521D-01  Symmetry=a'

 Vector   63  Occ=0.000000D+00  E= 3.818384D-01  Symmetry=a"

 Vector   64  Occ=0.000000D+00  E= 3.927111D-01  Symmetry=a'

 Vector   65  Occ=0.000000D+00  E= 4.150523D-01  Symmetry=a"

 Vector   66  Occ=0.000000D+00  E= 4.153857D-01  Symmetry=a'

 Vector   67  Occ=0.000000D+00  E= 4.325684D-01  Symmetry=a'

 Vector   68  Occ=0.000000D+00  E= 4.437876D-01  Symmetry=a"

 Vector   69  Occ=0.000000D+00  E= 4.531069D-01  Symmetry=a"

 Vector   70  Occ=0.000000D+00  E= 4.560503D-01  Symmetry=a'

 Vector   71  Occ=0.000000D+00  E= 4.698344D-01  Symmetry=a'

 Vector   72  Occ=0.000000D+00  E= 4.796996D-01  Symmetry=a'

 Vector   73  Occ=0.000000D+00  E= 5.087762D-01  Symmetry=a'

          Total MP2 energy          -379.518299374296
         Total SCF energy =   -378.398553422426
          Total MP2 energy          -379.518299374296
@   13    -379.51829937  1.2D-09  0.00002  0.00001  0.00007  0.00024   2469.6
         Total SCF energy =   -378.398554383619

 Vector    8  Occ=2.000000D+00  E=-1.469856D+00  Symmetry=a'

 Vector    9  Occ=2.000000D+00  E=-1.392226D+00  Symmetry=a'

 Vector   10  Occ=2.000000D+00  E=-1.384583D+00  Symmetry=a'

 Vector   11  Occ=2.000000D+00  E=-1.107380D+00  Symmetry=a'

 Vector   12  Occ=2.000000D+00  E=-9.418430D-01  Symmetry=a'

 Vector   13  Occ=2.000000D+00  E=-8.541623D-01  Symmetry=a'

 Vector   14  Occ=2.000000D+00  E=-7.952823D-01  Symmetry=a'

 Vector   15  Occ=2.000000D+00  E=-7.835255D-01  Symmetry=a'

 Vector   16  Occ=2.000000D+00  E=-6.822132D-01  Symmetry=a'

 Vector   17  Occ=2.000000D+00  E=-6.676124D-01  Symmetry=a'

 Vector   18  Occ=2.000000D+00  E=-6.444738D-01  Symmetry=a'

 Vector   19  Occ=2.000000D+00  E=-6.317890D-01  Symmetry=a"

 Vector   20  Occ=2.000000D+00  E=-6.157207D-01  Symmetry=a'

 Vector   21  Occ=2.000000D+00  E=-5.903679D-01  Symmetry=a'

 Vector   22  Occ=2.000000D+00  E=-5.542812D-01  Symmetry=a"

 Vector   23  Occ=2.000000D+00  E=-5.239908D-01  Symmetry=a"

 Vector   24  Occ=2.000000D+00  E=-4.518156D-01  Symmetry=a'

 Vector   25  Occ=2.000000D+00  E=-4.228302D-01  Symmetry=a'

 Vector   26  Occ=2.000000D+00  E=-3.786022D-01  Symmetry=a"

 Vector   27  Occ=0.000000D+00  E= 2.092869D-02  Symmetry=a'

 Vector   28  Occ=0.000000D+00  E= 3.782391D-02  Symmetry=a"

 Vector   29  Occ=0.000000D+00  E= 3.797852D-02  Symmetry=a'

 Vector   30  Occ=0.000000D+00  E= 5.461025D-02  Symmetry=a'

 Vector   31  Occ=0.000000D+00  E= 6.174644D-02  Symmetry=a'

 Vector   32  Occ=0.000000D+00  E= 7.725935D-02  Symmetry=a"

 Vector   33  Occ=0.000000D+00  E= 9.255101D-02  Symmetry=a'

 Vector   34  Occ=0.000000D+00  E= 1.062983D-01  Symmetry=a'

 Vector   35  Occ=0.000000D+00  E= 1.188831D-01  Symmetry=a"

 Vector   36  Occ=0.000000D+00  E= 1.210610D-01  Symmetry=a'

 Vector   37  Occ=0.000000D+00  E= 1.289808D-01  Symmetry=a"

 Vector   38  Occ=0.000000D+00  E= 1.313579D-01  Symmetry=a'

 Vector   39  Occ=0.000000D+00  E= 1.474325D-01  Symmetry=a"

 Vector   40  Occ=0.000000D+00  E= 1.515993D-01  Symmetry=a'

 Vector   41  Occ=0.000000D+00  E= 1.575983D-01  Symmetry=a'

 Vector   42  Occ=0.000000D+00  E= 1.656440D-01  Symmetry=a'

 Vector   43  Occ=0.000000D+00  E= 1.742619D-01  Symmetry=a'

 Vector   44  Occ=0.000000D+00  E= 1.869198D-01  Symmetry=a'

 Vector   45  Occ=0.000000D+00  E= 1.901159D-01  Symmetry=a"

 Vector   46  Occ=0.000000D+00  E= 2.067803D-01  Symmetry=a'

 Vector   47  Occ=0.000000D+00  E= 2.284179D-01  Symmetry=a'

 Vector   48  Occ=0.000000D+00  E= 2.335902D-01  Symmetry=a"

 Vector   49  Occ=0.000000D+00  E= 2.536692D-01  Symmetry=a"

 Vector   50  Occ=0.000000D+00  E= 2.569283D-01  Symmetry=a'

 Vector   51  Occ=0.000000D+00  E= 2.631540D-01  Symmetry=a'

 Vector   52  Occ=0.000000D+00  E= 2.682619D-01  Symmetry=a'

 Vector   53  Occ=0.000000D+00  E= 2.794787D-01  Symmetry=a'

 Vector   54  Occ=0.000000D+00  E= 2.941642D-01  Symmetry=a"

 Vector   55  Occ=0.000000D+00  E= 3.010239D-01  Symmetry=a'

 Vector   56  Occ=0.000000D+00  E= 3.239226D-01  Symmetry=a"

 Vector   57  Occ=0.000000D+00  E= 3.268844D-01  Symmetry=a'

 Vector   58  Occ=0.000000D+00  E= 3.389100D-01  Symmetry=a'

 Vector   59  Occ=0.000000D+00  E= 3.451419D-01  Symmetry=a'

 Vector   60  Occ=0.000000D+00  E= 3.492485D-01  Symmetry=a'

 Vector   61  Occ=0.000000D+00  E= 3.624859D-01  Symmetry=a'

 Vector   62  Occ=0.000000D+00  E= 3.807521D-01  Symmetry=a'

 Vector   63  Occ=0.000000D+00  E= 3.818383D-01  Symmetry=a"

 Vector   64  Occ=0.000000D+00  E= 3.927086D-01  Symmetry=a'

 Vector   65  Occ=0.000000D+00  E= 4.150519D-01  Symmetry=a"

 Vector   66  Occ=0.000000D+00  E= 4.153813D-01  Symmetry=a'

 Vector   67  Occ=0.000000D+00  E= 4.325673D-01  Symmetry=a'

 Vector   68  Occ=0.000000D+00  E= 4.437848D-01  Symmetry=a"

 Vector   69  Occ=0.000000D+00  E= 4.531080D-01  Symmetry=a"

 Vector   70  Occ=0.000000D+00  E= 4.560475D-01  Symmetry=a'

 Vector   71  Occ=0.000000D+00  E= 4.698346D-01  Symmetry=a'

 Vector   72  Occ=0.000000D+00  E= 4.796985D-01  Symmetry=a'

 Vector   73  Occ=0.000000D+00  E= 5.087705D-01  Symmetry=a'

       Multipole analysis of the density wrt the origin
       ------------------------------------------------

     L   x y z        total         open         nuclear
     -   - - -        -----         ----         -------
     0   0 0 0     -0.000000      0.000000     52.000000

     1   1 0 0     -0.814494      0.000000      0.011878
     1   0 1 0     -0.193374      0.000000      0.749997
     1   0 0 1     -0.000000      0.000000      0.000000

     2   2 0 0    -19.312451      0.000000    248.900065
     2   1 1 0     -6.178782      0.000000      1.639697
     2   1 0 1     -0.000000      0.000000      0.000000
     2   0 2 0    -44.501223      0.000000    451.635661
     2   0 1 1     -0.000000      0.000000      0.000000

          Total MP2 energy          -379.518299376521
         Total SCF energy =   -378.398554383619
          Total MP2 energy          -379.518299376521
@   14    -379.51829938 -2.2D-09  0.00000  0.00000  0.00004  0.00015   2618.1
@   14    -379.51829938 -2.2D-09  0.00000  0.00000  0.00004  0.00015   2618.2

 Output coordinates in angstroms (scale by  1.889725989 to convert to a.u.)

  No.       Tag          Charge          X              Y              Z
 ---- ---------------- ---------- -------------- -------------- --------------
    1 O                    8.0000    -1.62037533     1.33916742     0.00000000
    2 C                    6.0000    -1.12488228     0.09244155     0.00000000
    3 C                    6.0000     0.21562060    -0.18742709     0.00000000
    4 C                    6.0000     1.28812225     0.82959299     0.00000000
    5 O                    8.0000     1.12299704     2.04902973     0.00000000
    6 H                    1.0000    -2.58854040     1.29221070     0.00000000
    7 H                    1.0000    -1.83550890    -0.74312577     0.00000000
    8 C                    6.0000     0.60012227    -1.61932865     0.00000000
    9 H                    1.0000     2.32013469     0.40202158     0.00000000
   10 O                    8.0000    -0.18556655    -2.56827715     0.00000000
   11 H                    1.0000     1.69986208    -1.80525769     0.00000000

         Total SCF energy =   -378.398554383619
          Total MP2 energy          -379.518299376521
         Total SCF energy =   -378.398534307151
          Total MP2 energy          -379.518299046378
         Total SCF energy =   -378.398573772708
          Total MP2 energy          -379.518299045536
         Total SCF energy =   -378.398519954092
          Total MP2 energy          -379.518299165514
         Total SCF energy =   -378.398588373712
          Total MP2 energy          -379.518299165159
         Total SCF energy =   -378.398554353664
          Total MP2 energy          -379.518299362550
         Total SCF energy =   -378.398554353664
          Total MP2 energy          -379.518299362550
         Total SCF energy =   -378.398562493555
          Total MP2 energy          -379.518298952037
         Total SCF energy =   -378.398545404536
          Total MP2 energy          -379.518298952498
         Total SCF energy =   -378.398570781733
          Total MP2 energy          -379.518299035852
         Total SCF energy =   -378.398537294187
          Total MP2 energy          -379.518299035985
         Total SCF energy =   -378.398554278741
          Total MP2 energy          -379.518299303396
         Total SCF energy =   -378.398554317318
          Total MP2 energy          -379.518299325267
         Total SCF energy =   -378.398554317317
          Total MP2 energy          -379.518299325266
         Total SCF energy =   -378.398549057886
          Total MP2 energy          -379.518299084953
         Total SCF energy =   -378.398559067338
          Total MP2 energy          -379.518299085293
         Total SCF energy =   -378.398608320145
          Total MP2 energy          -379.518298942700
         Total SCF energy =   -378.398499542606
          Total MP2 energy          -379.518298943457
         Total SCF energy =   -378.398554260216
          Total MP2 energy          -379.518299287565
         Total SCF energy =   -378.398554260216
          Total MP2 energy          -379.518299287565
         Total SCF energy =   -378.398565201189
          Total MP2 energy          -379.518299331147
         Total SCF energy =   -378.398543439740
          Total MP2 energy          -379.518299331157
         Total SCF energy =   -378.398487705599
          Total MP2 energy          -379.518299006523
         Total SCF energy =   -378.398620315048
          Total MP2 energy          -379.518299005636
         Total SCF energy =   -378.398554356248
          Total MP2 energy          -379.518299365414
         Total SCF energy =   -378.398554356248
          Total MP2 energy          -379.518299365414
         Total SCF energy =   -378.398580309735
          Total MP2 energy          -379.518299118011
         Total SCF energy =   -378.398527935511
          Total MP2 energy          -379.518299118655
         Total SCF energy =   -378.398558819969
          Total MP2 energy          -379.518299347988
         Total SCF energy =   -378.398549867906
          Total MP2 energy          -379.518299347972
         Total SCF energy =   -378.398554371832
          Total MP2 energy          -379.518299371356
         Total SCF energy =   -378.398554371832
          Total MP2 energy          -379.518299371356
         Total SCF energy =   -378.398561155524
          Total MP2 energy          -379.518299279331
         Total SCF energy =   -378.398547408467
          Total MP2 energy          -379.518299279343
         Total SCF energy =   -378.398563425491
          Total MP2 energy          -379.518299261568
         Total SCF energy =   -378.398545103013
          Total MP2 energy          -379.518299261671
         Total SCF energy =   -378.398554365540
          Total MP2 energy          -379.518299364046
         Total SCF energy =   -378.398554365541
          Total MP2 energy          -379.518299364047
         Total SCF energy =   -378.398525124263
          Total MP2 energy          -379.518299003831
         Total SCF energy =   -378.398582846476
          Total MP2 energy          -379.518299003909
         Total SCF energy =   -378.398516660330
          Total MP2 energy          -379.518299014294
         Total SCF energy =   -378.398591354491
          Total MP2 energy          -379.518299014305
         Total SCF energy =   -378.398554258814
          Total MP2 energy          -379.518299286086
         Total SCF energy =   -378.398554258813
          Total MP2 energy          -379.518299286085
         Total SCF energy =   -378.398543775732
          Total MP2 energy          -379.518299237896
         Total SCF energy =   -378.398564706864
          Total MP2 energy          -379.518299237626
         Total SCF energy =   -378.398561368565
          Total MP2 energy          -379.518299326114
         Total SCF energy =   -378.398547286234
          Total MP2 energy          -379.518299326102
         Total SCF energy =   -378.398554368348
          Total MP2 energy          -379.518299366109
         Total SCF energy =   -378.398554368347
          Total MP2 energy          -379.518299366108
         Total SCF energy =   -378.398593329647
          Total MP2 energy          -379.518299197946
         Total SCF energy =   -378.398515065715
          Total MP2 energy          -379.518299198156
         Total SCF energy =   -378.398601843603
          Total MP2 energy          -379.518299135200
         Total SCF energy =   -378.398506428985
          Total MP2 energy          -379.518299135645
         Total SCF energy =   -378.398554356456
          Total MP2 energy          -379.518299364918
         Total SCF energy =   -378.398554356455
          Total MP2 energy          -379.518299364918
         Total SCF energy =   -378.398542224913
          Total MP2 energy          -379.518299223869
         Total SCF energy =   -378.398566230007
          Total MP2 energy          -379.518299223571
         Total SCF energy =   -378.398553893730
          Total MP2 energy          -379.518299337959
         Total SCF energy =   -378.398554784923
          Total MP2 energy          -379.518299337955
         Total SCF energy =   -378.398554368132
          Total MP2 energy          -379.518299365878
         Total SCF energy =   -378.398554368132
          Total MP2 energy          -379.518299365879
 Zero-Point correction to Energy  =   47.815 kcal/mol  (  0.076198 au)
 Thermal correction to Energy     =   52.272 kcal/mol  (  0.083301 au)
 Thermal correction to Enthalpy   =   52.864 kcal/mol  (  0.084244 au)
 Total Entropy                    =   83.063 cal/mol-K
   - Translational                =   39.701 cal/mol-K (mol. weight = 100.0160)
   - Rotational                   =   27.697 cal/mol-K (symmetry #  =        1)
   - Vibrational                  =   15.665 cal/mol-K
   - Translational                  =    2.979 cal/mol-K
   - Rotational                     =    2.979 cal/mol-K
   - Vibrational                    =   17.866 cal/mol-K
 P.Frequency       -0.00       -0.00       -0.00        0.00        0.00        0.00
 P.Frequency       94.48      182.95      189.64      230.83      263.33      334.81
 P.Frequency      453.35      484.17      580.85      741.12      910.33      942.42
 P.Frequency     1001.50     1017.54     1182.48     1267.65     1309.90     1387.12
 P.Frequency     1422.68     1438.14     1677.88     1689.23     1749.33     2946.81
 P.Frequency     2977.26     3194.23     3792.85

 Normal Eigenvalue ||           Projected Infra Red Intensities
  Mode   [cm**-1]  || [atomic units] [(debye/angs)**2] [(KM/mol)] [arbitrary]
 ------ ---------- || -------------- ----------------- ---------- -----------
    1       -0.000 ||    0.000257           0.006         0.251       0.044
    2       -0.000 ||    0.000019           0.000         0.019       0.003
    3       -0.000 ||    0.000703           0.016         0.685       0.121
    4        0.000 ||    0.000901           0.021         0.878       0.155
    5        0.000 ||    0.000026           0.001         0.025       0.004
    6        0.000 ||    0.000265           0.006         0.258       0.046
    7       94.480 ||    0.026912           0.621        26.235       4.634
    8      182.948 ||    0.001957           0.045         1.907       0.337
    9      189.636 ||    0.005364           0.124         5.229       0.924
   10      230.833 ||    0.018271           0.422        17.812       3.146
   11      263.327 ||    0.000002           0.000         0.002       0.000
   12      334.809 ||    0.068108           1.571        66.395      11.727
   13      453.350 ||    0.018569           0.428        18.102       3.197
   14      484.173 ||    0.001307           0.030         1.274       0.225
   15      580.849 ||    0.057955           1.337        56.497       9.979
   16      741.123 ||    0.096935           2.236        94.497      16.690
   17      910.329 ||    0.051569           1.190        50.272       8.879
   18      942.424 ||    0.001389           0.032         1.354       0.239
   19     1001.502 ||    0.001874           0.043         1.827       0.323
   20     1017.543 ||    0.000002           0.000         0.002       0.000
   21     1182.482 ||    0.016415           0.379        16.002       2.826
   22     1267.650 ||    0.080571           1.859        78.544      13.873
   23     1309.900 ||    0.265717           6.130       259.034      45.751
   24     1387.120 ||    0.032420           0.748        31.605       5.582
   25     1422.681 ||    0.002445           0.056         2.384       0.421
   26     1438.137 ||    0.002289           0.053         2.232       0.394
   27     1677.877 ||    0.257930           5.951       251.443      44.411
   28     1689.228 ||    0.403866           9.318       393.709      69.538
   29     1749.330 ||    0.138928           3.205       135.434      23.921
   30     2946.807 ||    0.046980           1.084        45.799       8.089
   31     2977.263 ||    0.131777           3.040       128.463      22.690
   32     3194.229 ||    0.000102           0.002         0.099       0.018
   33     3792.846 ||    0.184758           4.263       180.112      31.812
 ----------------------------------------------------------------------------

 Total times  cpu:    11879.7s     wall:    12032.6s
