============================== echo of input deck ==============================
echo
start 8cR1
title "H,CHO,H Reference 1"
charge 0

geometry
 zmatrix
  O
  C  1  R1
  C  2  R2  1  A1
  H  1  R5  2  A4  3  D0
  H  2  R6  3  A5  4  D180
  C  3  R7  2  A6  1  D180
  H  3  R8  2  A7  1  D0
  O  6  R9  3  A8  2  D0
  H  6  R10 3  A9  2  D180
  variables
    R1  1.329
    R2  1.363
    A1  124.5
    R5  0.994
    A4  105.4
    R6  1.085
    A5  122.5
    R7  1.478
    A6  120.0
    R8  1.099
    A7  117.6
    R9  1.250
    A8  120.0
    R10 1.000
    A9  120.0
  constants
    D0  0.000
    D180 180.0
 end
end

basis spherical
 * library aug-cc-pVDZ
end

set lindep:n_dep 0

set cphf:maxsub 95
set cphf:maxiter 999
set int:acc_std 1d-16
set fock:densityscreen f

scf
 maxiter 99
 vectors input atomic
 thresh 1d-9
 tol2e 1d-15
end

mp2
 freeze atomic
 tight
end

driver
 clear
 maxiter 99
 tight
end

set "mp2:aotol2e fock" 1d-15
set mp2:aotol2e 1d-15
set mp2:backtol 1d-15

task mp2 optimize
task mp2 frequencies

================================================================================

         Total SCF energy =   -265.650000904378
          Total MP2 energy          -266.449667461274
@ Step       Energy      Delta E   Gmax     Grms     Xrms     Xmax   Walltime
@ ---- ---------------- -------- -------- -------- -------- -------- --------
@    0    -266.44966746  0.0D+00  0.09441  0.02246  0.00000  0.00000     63.5
         Total SCF energy =   -265.660978335324
          Total MP2 energy          -266.461503438727
         Total SCF energy =   -265.661310185331
          Total MP2 energy          -266.461638418191
@    1    -266.46163842 -1.2D-02  0.00839  0.00318  0.07338  0.20173    145.6
         Total SCF energy =   -265.661924227101
          Total MP2 energy          -266.461824728677
         Total SCF energy =   -265.662135810029
          Total MP2 energy          -266.462192620486
@    2    -266.46219262 -5.5D-04  0.00425  0.00142  0.02033  0.05379    224.7
         Total SCF energy =   -265.662859382526
          Total MP2 energy          -266.462331813001
         Total SCF energy =   -265.662768343349
          Total MP2 energy          -266.462337931349
@    3    -266.46233793 -1.5D-04  0.00139  0.00055  0.00754  0.01944    302.7
         Total SCF energy =   -265.662715173552
          Total MP2 energy          -266.462352352633
         Total SCF energy =   -265.662734106534
          Total MP2 energy          -266.462354053460
@    4    -266.46235405 -1.6D-05  0.00048  0.00017  0.00508  0.02038    377.1
         Total SCF energy =   -265.662694684313
          Total MP2 energy          -266.462356246418
         Total SCF energy =   -265.662700286467
          Total MP2 energy          -266.462356298626
@    5    -266.46235630 -2.2D-06  0.00024  0.00009  0.00204  0.00729    449.8
         Total SCF energy =   -265.662698398086
          Total MP2 energy          -266.462356918350
         Total SCF energy =   -265.662698984221
          Total MP2 energy          -266.462356963609
@    6    -266.46235696 -6.6D-07  0.00010  0.00004  0.00186  0.00371    522.3
         Total SCF energy =   -265.662717453369
          Total MP2 energy          -266.462357014314
         Total SCF energy =   -265.662717453369
          Total MP2 energy          -266.462357014314
@    7    -266.46235701 -5.1D-08  0.00008  0.00002  0.00025  0.00080    576.1
         Total SCF energy =   -265.662713965091

 Vector   30  Occ=0.000000D+00  E= 1.399045D-01  Symmetry=a'

 Vector   31  Occ=0.000000D+00  E= 1.459863D-01  Symmetry=a'

 Vector   32  Occ=0.000000D+00  E= 1.488286D-01  Symmetry=a"

 Vector   33  Occ=0.000000D+00  E= 1.656651D-01  Symmetry=a'

 Vector   34  Occ=0.000000D+00  E= 1.780314D-01  Symmetry=a'

 Vector   35  Occ=0.000000D+00  E= 2.117844D-01  Symmetry=a'

 Vector   36  Occ=0.000000D+00  E= 2.340630D-01  Symmetry=a'

 Vector   37  Occ=0.000000D+00  E= 2.341742D-01  Symmetry=a"

 Vector   38  Occ=0.000000D+00  E= 2.482319D-01  Symmetry=a"

 Vector   39  Occ=0.000000D+00  E= 2.588275D-01  Symmetry=a'

 Vector   40  Occ=0.000000D+00  E= 2.736135D-01  Symmetry=a'

 Vector   41  Occ=0.000000D+00  E= 2.865551D-01  Symmetry=a'

 Vector   42  Occ=0.000000D+00  E= 3.063975D-01  Symmetry=a"

 Vector   43  Occ=0.000000D+00  E= 3.094083D-01  Symmetry=a'

 Vector   44  Occ=0.000000D+00  E= 3.219030D-01  Symmetry=a'

 Vector   45  Occ=0.000000D+00  E= 3.329414D-01  Symmetry=a'

 Vector   46  Occ=0.000000D+00  E= 3.564170D-01  Symmetry=a'

 Vector   47  Occ=0.000000D+00  E= 3.649680D-01  Symmetry=a'

 Vector   48  Occ=0.000000D+00  E= 3.804894D-01  Symmetry=a'

 Vector   49  Occ=0.000000D+00  E= 3.823167D-01  Symmetry=a"

 Vector   50  Occ=0.000000D+00  E= 4.000081D-01  Symmetry=a"

 Vector   51  Occ=0.000000D+00  E= 4.119522D-01  Symmetry=a'

 Vector   52  Occ=0.000000D+00  E= 4.376229D-01  Symmetry=a"

 Vector   53  Occ=0.000000D+00  E= 4.384456D-01  Symmetry=a'

 Vector   54  Occ=0.000000D+00  E= 4.475369D-01  Symmetry=a'

 Vector   55  Occ=0.000000D+00  E= 4.724975D-01  Symmetry=a'

 Vector   56  Occ=0.000000D+00  E= 4.762920D-01  Symmetry=a"

 Vector   57  Occ=0.000000D+00  E= 5.133896D-01  Symmetry=a'

          Total MP2 energy          -266.462357023528
         Total SCF energy =   -265.662713965091
          Total MP2 energy          -266.462357023528
@    8    -266.46235702 -9.2D-09  0.00001  0.00000  0.00005  0.00012    629.7
         Total SCF energy =   -265.662713853096

 Vector    6  Occ=2.000000D+00  E=-1.443349D+00  Symmetry=a'

 Vector    7  Occ=2.000000D+00  E=-1.375186D+00  Symmetry=a'

 Vector    8  Occ=2.000000D+00  E=-1.068595D+00  Symmetry=a'

 Vector    9  Occ=2.000000D+00  E=-9.032064D-01  Symmetry=a'

 Vector   10  Occ=2.000000D+00  E=-8.136298D-01  Symmetry=a'

 Vector   11  Occ=2.000000D+00  E=-7.151361D-01  Symmetry=a'

 Vector   12  Occ=2.000000D+00  E=-6.884472D-01  Symmetry=a'

 Vector   13  Occ=2.000000D+00  E=-6.377932D-01  Symmetry=a'

 Vector   14  Occ=2.000000D+00  E=-6.102901D-01  Symmetry=a"

 Vector   15  Occ=2.000000D+00  E=-6.011688D-01  Symmetry=a'

 Vector   16  Occ=2.000000D+00  E=-5.609693D-01  Symmetry=a'

 Vector   17  Occ=2.000000D+00  E=-5.288653D-01  Symmetry=a"

 Vector   18  Occ=2.000000D+00  E=-4.254747D-01  Symmetry=a'

 Vector   19  Occ=2.000000D+00  E=-3.682487D-01  Symmetry=a"

 Vector   20  Occ=0.000000D+00  E= 2.468284D-02  Symmetry=a'

 Vector   21  Occ=0.000000D+00  E= 4.167076D-02  Symmetry=a'

 Vector   22  Occ=0.000000D+00  E= 5.230724D-02  Symmetry=a'

 Vector   23  Occ=0.000000D+00  E= 6.652336D-02  Symmetry=a'

 Vector   24  Occ=0.000000D+00  E= 6.811395D-02  Symmetry=a"

 Vector   25  Occ=0.000000D+00  E= 1.037045D-01  Symmetry=a"

 Vector   26  Occ=0.000000D+00  E= 1.115646D-01  Symmetry=a'

 Vector   27  Occ=0.000000D+00  E= 1.247236D-01  Symmetry=a'

 Vector   28  Occ=0.000000D+00  E= 1.306765D-01  Symmetry=a"

 Vector   29  Occ=0.000000D+00  E= 1.316644D-01  Symmetry=a'

 Vector   30  Occ=0.000000D+00  E= 1.399047D-01  Symmetry=a'

 Vector   31  Occ=0.000000D+00  E= 1.459865D-01  Symmetry=a'

 Vector   32  Occ=0.000000D+00  E= 1.488286D-01  Symmetry=a"

 Vector   33  Occ=0.000000D+00  E= 1.656652D-01  Symmetry=a'

 Vector   34  Occ=0.000000D+00  E= 1.780312D-01  Symmetry=a'

 Vector   35  Occ=0.000000D+00  E= 2.117840D-01  Symmetry=a'

 Vector   36  Occ=0.000000D+00  E= 2.340627D-01  Symmetry=a'

 Vector   37  Occ=0.000000D+00  E= 2.341737D-01  Symmetry=a"

 Vector   38  Occ=0.000000D+00  E= 2.482317D-01  Symmetry=a"

 Vector   39  Occ=0.000000D+00  E= 2.588274D-01  Symmetry=a'

 Vector   40  Occ=0.000000D+00  E= 2.736133D-01  Symmetry=a'

 Vector   41  Occ=0.000000D+00  E= 2.865551D-01  Symmetry=a'

 Vector   42  Occ=0.000000D+00  E= 3.063975D-01  Symmetry=a"

 Vector   43  Occ=0.000000D+00  E= 3.094091D-01  Symmetry=a'

 Vector   44  Occ=0.000000D+00  E= 3.219036D-01  Symmetry=a'

 Vector   45  Occ=0.000000D+00  E= 3.329409D-01  Symmetry=a'

 Vector   46  Occ=0.000000D+00  E= 3.564167D-01  Symmetry=a'

 Vector   47  Occ=0.000000D+00  E= 3.649680D-01  Symmetry=a'

 Vector   48  Occ=0.000000D+00  E= 3.804907D-01  Symmetry=a'

 Vector   49  Occ=0.000000D+00  E= 3.823170D-01  Symmetry=a"

 Vector   50  Occ=0.000000D+00  E= 4.000079D-01  Symmetry=a"

 Vector   51  Occ=0.000000D+00  E= 4.119516D-01  Symmetry=a'

 Vector   52  Occ=0.000000D+00  E= 4.376226D-01  Symmetry=a"

 Vector   53  Occ=0.000000D+00  E= 4.384452D-01  Symmetry=a'

 Vector   54  Occ=0.000000D+00  E= 4.475368D-01  Symmetry=a'

 Vector   55  Occ=0.000000D+00  E= 4.724957D-01  Symmetry=a'

 Vector   56  Occ=0.000000D+00  E= 4.762920D-01  Symmetry=a"

 Vector   57  Occ=0.000000D+00  E= 5.133880D-01  Symmetry=a'

       Multipole analysis of the density wrt the origin
       ------------------------------------------------

     L   x y z        total         open         nuclear
     -   - - -        -----         ----         -------
     0   0 0 0     -0.000000      0.000000     38.000000

     1   1 0 0      1.293035      0.000000     -0.612959
     1   0 1 0      1.013518      0.000000     -0.121060
     1   0 0 1     -0.000000      0.000000      0.000000

     2   2 0 0    -19.823091      0.000000     57.840850
     2   1 1 0     -0.974593      0.000000      0.318448
     2   1 0 1     -0.000000      0.000000      0.000000
     2   0 2 0    -24.998982      0.000000    354.181800
     2   0 1 1      0.000000      0.000000      0.000000

          Total MP2 energy          -266.462357023820
         Total SCF energy =   -265.662713853096
          Total MP2 energy          -266.462357023820
@    9    -266.46235702 -2.9D-10  0.00000  0.00000  0.00001  0.00003    677.5
@    9    -266.46235702 -2.9D-10  0.00000  0.00000  0.00001  0.00003    677.5

 Output coordinates in angstroms (scale by  1.889725989 to convert to a.u.)

  No.       Tag          Charge          X              Y              Z
 ---- ---------------- ---------- -------------- -------------- --------------
    1 O                    8.0000    -0.23528350     2.23461120     0.00000000
    2 C                    6.0000    -0.33025315     0.88106078     0.00000000
    3 C                    6.0000     0.69918872    -0.00655799     0.00000000
    4 H                    1.0000     0.70152982     2.48835939     0.00000000
    5 H                    1.0000    -1.36883491     0.54193545     0.00000000
    6 C                    6.0000     0.42390976    -1.45591581     0.00000000
    7 H                    1.0000     1.74210907     0.32762234     0.00000000
    8 O                    8.0000    -0.70028629    -1.96286405     0.00000000
    9 H                    1.0000     1.32831861    -2.10747842     0.00000000

         Total SCF energy =   -265.662713853096
          Total MP2 energy          -266.462357023820
         Total SCF energy =   -265.662741563246
          Total MP2 energy          -266.462356735347
         Total SCF energy =   -265.662685534881
          Total MP2 energy          -266.462356737347
         Total SCF energy =   -265.662692317629
          Total MP2 energy          -266.462356787077
         Total SCF energy =   -265.662734904713
          Total MP2 energy          -266.462356788893
         Total SCF energy =   -265.662713820419
          Total MP2 energy          -266.462357005728
         Total SCF energy =   -265.662713820420
          Total MP2 energy          -266.462357005728
         Total SCF energy =   -265.662722854062
          Total MP2 energy          -266.462356612472
         Total SCF energy =   -265.662703981111
          Total MP2 energy          -266.462356610727
         Total SCF energy =   -265.662715326639
          Total MP2 energy          -266.462356668195
         Total SCF energy =   -265.662711671711
          Total MP2 energy          -266.462356668129
         Total SCF energy =   -265.662713753576
          Total MP2 energy          -266.462356954048
         Total SCF energy =   -265.662713753576
          Total MP2 energy          -266.462356954048
         Total SCF energy =   -265.662699365519
          Total MP2 energy          -266.462356629548
         Total SCF energy =   -265.662727535057
          Total MP2 energy          -266.462356631064
         Total SCF energy =   -265.662729215838
          Total MP2 energy          -266.462356693953
         Total SCF energy =   -265.662697798905
          Total MP2 energy          -266.462356690738
         Total SCF energy =   -265.662713791439
          Total MP2 energy          -266.462356979519
         Total SCF energy =   -265.662713791439
          Total MP2 energy          -266.462356979519
         Total SCF energy =   -265.662687389953
          Total MP2 energy          -266.462356787163
         Total SCF energy =   -265.662739834321
          Total MP2 energy          -266.462356785345
         Total SCF energy =   -265.662709718826
          Total MP2 energy          -266.462356977788
         Total SCF energy =   -265.662717875102
          Total MP2 energy          -266.462356977981
         Total SCF energy =   -265.662713841634
          Total MP2 energy          -266.462357019269
         Total SCF energy =   -265.662713841634
          Total MP2 energy          -266.462357019269
         Total SCF energy =   -265.662723847659
          Total MP2 energy          -266.462356851462
         Total SCF energy =   -265.662703510301
          Total MP2 energy          -266.462356851652
         Total SCF energy =   -265.662716682318
          Total MP2 energy          -266.462356978281
         Total SCF energy =   -265.662710921255
          Total MP2 energy          -266.462356978393
         Total SCF energy =   -265.662713834423
          Total MP2 energy          -266.462357010327
         Total SCF energy =   -265.662713834423
          Total MP2 energy          -266.462357010327
         Total SCF energy =   -265.662667998299
          Total MP2 energy          -266.462356597535
         Total SCF energy =   -265.662758816055
          Total MP2 energy          -266.462356594352
         Total SCF energy =   -265.662690956095
          Total MP2 energy          -266.462356714905
         Total SCF energy =   -265.662736091177
          Total MP2 energy          -266.462356717804
         Total SCF energy =   -265.662713729726
          Total MP2 energy          -266.462356934819
         Total SCF energy =   -265.662713729726
          Total MP2 energy          -266.462356934819
         Total SCF energy =   -265.662704657774
          Total MP2 energy          -266.462356856462
         Total SCF energy =   -265.662722712713
          Total MP2 energy          -266.462356856272
         Total SCF energy =   -265.662710718135
          Total MP2 energy          -266.462356982924
         Total SCF energy =   -265.662716894851
          Total MP2 energy          -266.462356983518
         Total SCF energy =   -265.662713839366
          Total MP2 energy          -266.462357013564
         Total SCF energy =   -265.662713839367
          Total MP2 energy          -266.462357013564
         Total SCF energy =   -265.662770932795
          Total MP2 energy          -266.462356705421
         Total SCF energy =   -265.662656135790
          Total MP2 energy          -266.462356706050
         Total SCF energy =   -265.662738828032
          Total MP2 energy          -266.462356926188
         Total SCF energy =   -265.662688654853
          Total MP2 energy          -266.462356926111
         Total SCF energy =   -265.662713826071
          Total MP2 energy          -266.462357012299
         Total SCF energy =   -265.662713826072
          Total MP2 energy          -266.462357012299
         Total SCF energy =   -265.662703461062
          Total MP2 energy          -266.462356909132
         Total SCF energy =   -265.662724010215
          Total MP2 energy          -266.462356911766
         Total SCF energy =   -265.662719294541
          Total MP2 energy          -266.462356946336
         Total SCF energy =   -265.662708245508
          Total MP2 energy          -266.462356944156
         Total SCF energy =   -265.662713837732
          Total MP2 energy          -266.462357013227
         Total SCF energy =   -265.662713837733
          Total MP2 energy          -266.462357013227
 Zero-Point correction to Energy  =   41.865 kcal/mol  (  0.066715 au)
 Thermal correction to Energy     =   45.195 kcal/mol  (  0.072023 au)
 Thermal correction to Enthalpy   =   45.787 kcal/mol  (  0.072966 au)
 Total Entropy                    =   72.650 cal/mol-K
   - Translational                =   38.722 cal/mol-K (mol. weight =  72.0211)
   - Rotational                   =   25.314 cal/mol-K (symmetry #  =        1)
   - Vibrational                  =    8.614 cal/mol-K
   - Translational                  =    2.979 cal/mol-K
   - Rotational                     =    2.979 cal/mol-K
   - Vibrational                    =   11.387 cal/mol-K
 P.Frequency       -0.00       -0.00        0.00        0.00        0.00        0.00
 P.Frequency      164.60      203.95      250.37      442.05      537.05      735.25
 P.Frequency      801.76      997.50     1002.11     1007.42     1142.25     1282.29
 P.Frequency     1312.72     1389.73     1420.08     1669.19     1720.35     2981.01
 P.Frequency     3210.13     3255.44     3773.41

 Normal Eigenvalue ||           Projected Infra Red Intensities
  Mode   [cm**-1]  || [atomic units] [(debye/angs)**2] [(KM/mol)] [arbitrary]
 ------ ---------- || -------------- ----------------- ---------- -----------
    1       -0.000 ||    0.001525           0.035         1.487       0.286
    2       -0.000 ||    0.000525           0.012         0.512       0.098
    3        0.000 ||    0.006232           0.144         6.075       1.169
    4        0.000 ||    0.007920           0.183         7.721       1.486
    5        0.000 ||    0.001154           0.027         1.125       0.217
    6        0.000 ||    0.001165           0.027         1.136       0.219
    7      164.601 ||    0.000009           0.000         0.008       0.002
    8      203.950 ||    0.002704           0.062         2.636       0.507
    9      250.365 ||    0.007480           0.173         7.292       1.403
   10      442.047 ||    0.008168           0.188         7.962       1.532
   11      537.054 ||    0.077556           1.789        75.606      14.549
   12      735.254 ||    0.073767           1.702        71.911      13.838
   13      801.763 ||    0.026478           0.611        25.813       4.967
   14      997.503 ||    0.023666           0.546        23.071       4.440
   15     1002.115 ||    0.116015           2.677       113.097      21.764
   16     1007.421 ||    0.027504           0.635        26.812       5.160
   17     1142.245 ||    0.144548           3.335       140.913      27.117
   18     1282.287 ||    0.011827           0.273        11.530       2.219
   19     1312.720 ||    0.035548           0.820        34.654       6.669
   20     1389.729 ||    0.000169           0.004         0.165       0.032
   21     1420.079 ||    0.003498           0.081         3.410       0.656
   22     1669.186 ||    0.550311          12.696       536.471     103.237
   23     1720.346 ||    0.091832           2.119        89.522      17.227
   24     2981.005 ||    0.129672           2.992       126.410      24.326
   25     3210.125 ||    0.010313           0.238        10.053       1.935
   26     3255.439 ||    0.000591           0.014         0.576       0.111
   27     3773.408 ||    0.079080           1.824        77.091      14.835
 ----------------------------------------------------------------------------

 Total times  cpu:     3394.0s     wall:     3445.1s
