============================== echo of input deck ==============================
echo
start 8cR2
title "H,CHO,H Reference 2"
charge 0

geometry
 zmatrix
  O
  C  1  R1
  C  2  R2  1  A1
  H  1  R5  2  A4  3  D180
  H  2  R6  3  A5  4  D180
  C  3  R7  2  A6  1  D180
  H  3  R8  2  A7  1  D0
  O  6  R9  3  A8  2  D0
  H  6  R10 3  A9  2  D180
  variables
    R1  1.329
    R2  1.363
    A1  124.5
    R5  0.994
    A4  105.4
    R6  1.085
    A5  122.5
    R7  1.478
    A6  120.0
    R8  1.099
    A7  117.6
    R9  1.250
    A8  120.0
    R10 1.000
    A9  120.0
  constants
    D0  0.000
    D180 180.0
 end
end

basis spherical
 * library aug-cc-pVDZ
end

set lindep:n_dep 0

set cphf:maxsub 95
set cphf:maxiter 999
set int:acc_std 1d-16
set fock:densityscreen f

scf
 maxiter 99
 vectors input atomic
 thresh 1d-9
 tol2e 1d-15
end

mp2
 freeze atomic
 tight
end

driver
 clear
 maxiter 99
 tight
end

set "mp2:aotol2e fock" 1d-15
set mp2:aotol2e 1d-15
set mp2:backtol 1d-15

task mp2 optimize
task mp2 frequencies

================================================================================

         Total SCF energy =   -265.647777321763
          Total MP2 energy          -266.447440959215
@ Step       Energy      Delta E   Gmax     Grms     Xrms     Xmax   Walltime
@ ---- ---------------- -------- -------- -------- -------- -------- --------
@    0    -266.44744096  0.0D+00  0.09424  0.02343  0.00000  0.00000     65.1
         Total SCF energy =   -265.657443914348
          Total MP2 energy          -266.458192365020
         Total SCF energy =   -265.659420879851
          Total MP2 energy          -266.459692406441
@    1    -266.45969241 -1.2D-02  0.01691  0.00527  0.08752  0.21957    150.2
         Total SCF energy =   -265.660323101938
          Total MP2 energy          -266.460527080535
         Total SCF energy =   -265.661025002657
          Total MP2 energy          -266.461172048140
@    2    -266.46117205 -1.5D-03  0.00384  0.00162  0.03136  0.08345    229.8
         Total SCF energy =   -265.661642677155
          Total MP2 energy          -266.461299794482
         Total SCF energy =   -265.661549253208
          Total MP2 energy          -266.461310457615
@    3    -266.46131046 -1.4D-04  0.00132  0.00053  0.00710  0.02547    306.9
         Total SCF energy =   -265.661608339350
          Total MP2 energy          -266.461319578444
         Total SCF energy =   -265.661600841544
          Total MP2 energy          -266.461332145070
@    4    -266.46133215 -2.2D-05  0.00062  0.00027  0.00430  0.01426    384.7
         Total SCF energy =   -265.661563551475
          Total MP2 energy          -266.461334719927
         Total SCF energy =   -265.661568806396
          Total MP2 energy          -266.461334778088
@    5    -266.46133478 -2.6D-06  0.00017  0.00007  0.00149  0.00451    457.2
         Total SCF energy =   -265.661567680967
          Total MP2 energy          -266.461335223226
         Total SCF energy =   -265.661567477476
          Total MP2 energy          -266.461335229043
@    6    -266.46133523 -4.5D-07  0.00013  0.00004  0.00151  0.00340    527.1
         Total SCF energy =   -265.661577778910
          Total MP2 energy          -266.461335297230
         Total SCF energy =   -265.661577778910
          Total MP2 energy          -266.461335297230
@    7    -266.46133530 -6.8D-08  0.00004  0.00001  0.00038  0.00087    581.7
         Total SCF energy =   -265.661575952467
          Total MP2 energy          -266.461335300956
         Total SCF energy =   -265.661575952467
          Total MP2 energy          -266.461335300956
@    8    -266.46133530 -3.7D-09  0.00001  0.00000  0.00007  0.00018    635.4
         Total SCF energy =   -265.661576328519

 Vector   30  Occ=0.000000D+00  E= 1.488134D-01  Symmetry=a"

 Vector   31  Occ=0.000000D+00  E= 1.535241D-01  Symmetry=a'

 Vector   32  Occ=0.000000D+00  E= 1.592841D-01  Symmetry=a'

 Vector   33  Occ=0.000000D+00  E= 1.706536D-01  Symmetry=a'

 Vector   34  Occ=0.000000D+00  E= 1.808235D-01  Symmetry=a'

 Vector   35  Occ=0.000000D+00  E= 2.049849D-01  Symmetry=a'

 Vector   36  Occ=0.000000D+00  E= 2.364337D-01  Symmetry=a"

 Vector   37  Occ=0.000000D+00  E= 2.367717D-01  Symmetry=a'

 Vector   38  Occ=0.000000D+00  E= 2.448306D-01  Symmetry=a'

 Vector   39  Occ=0.000000D+00  E= 2.491237D-01  Symmetry=a"

 Vector   40  Occ=0.000000D+00  E= 2.679769D-01  Symmetry=a'

 Vector   41  Occ=0.000000D+00  E= 2.926068D-01  Symmetry=a'

 Vector   42  Occ=0.000000D+00  E= 3.010271D-01  Symmetry=a'

 Vector   43  Occ=0.000000D+00  E= 3.059610D-01  Symmetry=a"

 Vector   44  Occ=0.000000D+00  E= 3.364386D-01  Symmetry=a'

 Vector   45  Occ=0.000000D+00  E= 3.472784D-01  Symmetry=a'

 Vector   46  Occ=0.000000D+00  E= 3.504912D-01  Symmetry=a'

 Vector   47  Occ=0.000000D+00  E= 3.719987D-01  Symmetry=a'

 Vector   48  Occ=0.000000D+00  E= 3.776900D-01  Symmetry=a"

 Vector   49  Occ=0.000000D+00  E= 3.830883D-01  Symmetry=a'

 Vector   50  Occ=0.000000D+00  E= 3.959348D-01  Symmetry=a"

 Vector   51  Occ=0.000000D+00  E= 4.147334D-01  Symmetry=a'

 Vector   52  Occ=0.000000D+00  E= 4.294672D-01  Symmetry=a'

 Vector   53  Occ=0.000000D+00  E= 4.492828D-01  Symmetry=a'

 Vector   54  Occ=0.000000D+00  E= 4.599633D-01  Symmetry=a"

 Vector   55  Occ=0.000000D+00  E= 4.766761D-01  Symmetry=a'

 Vector   56  Occ=0.000000D+00  E= 4.807123D-01  Symmetry=a"

 Vector   57  Occ=0.000000D+00  E= 5.135053D-01  Symmetry=a'

          Total MP2 energy          -266.461335301444
         Total SCF energy =   -265.661576328519
          Total MP2 energy          -266.461335301444
@    9    -266.46133530 -4.9D-10  0.00000  0.00000  0.00002  0.00006    687.6
         Total SCF energy =   -265.661576589162

 Vector    6  Occ=2.000000D+00  E=-1.439571D+00  Symmetry=a'

 Vector    7  Occ=2.000000D+00  E=-1.372055D+00  Symmetry=a'

 Vector    8  Occ=2.000000D+00  E=-1.067723D+00  Symmetry=a'

 Vector    9  Occ=2.000000D+00  E=-8.943907D-01  Symmetry=a'

 Vector   10  Occ=2.000000D+00  E=-7.758061D-01  Symmetry=a'

 Vector   11  Occ=2.000000D+00  E=-7.658385D-01  Symmetry=a'

 Vector   12  Occ=2.000000D+00  E=-6.649957D-01  Symmetry=a'

 Vector   13  Occ=2.000000D+00  E=-6.388833D-01  Symmetry=a'

 Vector   14  Occ=2.000000D+00  E=-6.071342D-01  Symmetry=a"

 Vector   15  Occ=2.000000D+00  E=-6.053369D-01  Symmetry=a'

 Vector   16  Occ=2.000000D+00  E=-5.472068D-01  Symmetry=a'

 Vector   17  Occ=2.000000D+00  E=-5.257961D-01  Symmetry=a"

 Vector   18  Occ=2.000000D+00  E=-4.233282D-01  Symmetry=a'

 Vector   19  Occ=2.000000D+00  E=-3.627929D-01  Symmetry=a"

 Vector   20  Occ=0.000000D+00  E= 2.591819D-02  Symmetry=a'

 Vector   21  Occ=0.000000D+00  E= 3.940786D-02  Symmetry=a'

 Vector   22  Occ=0.000000D+00  E= 5.619786D-02  Symmetry=a'

 Vector   23  Occ=0.000000D+00  E= 6.433146D-02  Symmetry=a'

 Vector   24  Occ=0.000000D+00  E= 6.828558D-02  Symmetry=a"

 Vector   25  Occ=0.000000D+00  E= 1.016977D-01  Symmetry=a"

 Vector   26  Occ=0.000000D+00  E= 1.116974D-01  Symmetry=a'

 Vector   27  Occ=0.000000D+00  E= 1.204769D-01  Symmetry=a'

 Vector   28  Occ=0.000000D+00  E= 1.288409D-01  Symmetry=a'

 Vector   29  Occ=0.000000D+00  E= 1.392019D-01  Symmetry=a"

 Vector   30  Occ=0.000000D+00  E= 1.488135D-01  Symmetry=a"

 Vector   31  Occ=0.000000D+00  E= 1.535242D-01  Symmetry=a'

 Vector   32  Occ=0.000000D+00  E= 1.592841D-01  Symmetry=a'

 Vector   33  Occ=0.000000D+00  E= 1.706537D-01  Symmetry=a'

 Vector   34  Occ=0.000000D+00  E= 1.808235D-01  Symmetry=a'

 Vector   35  Occ=0.000000D+00  E= 2.049849D-01  Symmetry=a'

 Vector   36  Occ=0.000000D+00  E= 2.364339D-01  Symmetry=a"

 Vector   37  Occ=0.000000D+00  E= 2.367717D-01  Symmetry=a'

 Vector   38  Occ=0.000000D+00  E= 2.448307D-01  Symmetry=a'

 Vector   39  Occ=0.000000D+00  E= 2.491238D-01  Symmetry=a"

 Vector   40  Occ=0.000000D+00  E= 2.679770D-01  Symmetry=a'

 Vector   41  Occ=0.000000D+00  E= 2.926069D-01  Symmetry=a'

 Vector   42  Occ=0.000000D+00  E= 3.010270D-01  Symmetry=a'

 Vector   43  Occ=0.000000D+00  E= 3.059610D-01  Symmetry=a"

 Vector   44  Occ=0.000000D+00  E= 3.364386D-01  Symmetry=a'

 Vector   45  Occ=0.000000D+00  E= 3.472787D-01  Symmetry=a'

 Vector   46  Occ=0.000000D+00  E= 3.504914D-01  Symmetry=a'

 Vector   47  Occ=0.000000D+00  E= 3.719987D-01  Symmetry=a'

 Vector   48  Occ=0.000000D+00  E= 3.776900D-01  Symmetry=a"

 Vector   49  Occ=0.000000D+00  E= 3.830885D-01  Symmetry=a'

 Vector   50  Occ=0.000000D+00  E= 3.959348D-01  Symmetry=a"

 Vector   51  Occ=0.000000D+00  E= 4.147336D-01  Symmetry=a'

 Vector   52  Occ=0.000000D+00  E= 4.294673D-01  Symmetry=a'

 Vector   53  Occ=0.000000D+00  E= 4.492828D-01  Symmetry=a'

 Vector   54  Occ=0.000000D+00  E= 4.599635D-01  Symmetry=a"

 Vector   55  Occ=0.000000D+00  E= 4.766763D-01  Symmetry=a'

 Vector   56  Occ=0.000000D+00  E= 4.807124D-01  Symmetry=a"

 Vector   57  Occ=0.000000D+00  E= 5.135057D-01  Symmetry=a'

       Multipole analysis of the density wrt the origin
       ------------------------------------------------

     L   x y z        total         open         nuclear
     -   - - -        -----         ----         -------
     0   0 0 0     -0.000000      0.000000     38.000000

     1   1 0 0      0.124125      0.000000     -0.938970
     1   0 1 0      1.155556      0.000000     -0.512058
     1   0 0 1      0.000000      0.000000      0.000000

     2   2 0 0    -19.125751      0.000000     58.331277
     2   1 1 0     -7.740120      0.000000     -7.524826
     2   1 0 1     -0.000000      0.000000      0.000000
     2   0 2 0    -23.686729      0.000000    354.780876
     2   0 1 1     -0.000000      0.000000      0.000000

          Total MP2 energy          -266.461335301466
         Total SCF energy =   -265.661576589162
          Total MP2 energy          -266.461335301466
@   10    -266.46133530 -2.1D-11  0.00000  0.00000  0.00000  0.00000    737.1
@   10    -266.46133530 -2.1D-11  0.00000  0.00000  0.00000  0.00000    737.1

 Output coordinates in angstroms (scale by  1.889725989 to convert to a.u.)

  No.       Tag          Charge          X              Y              Z
 ---- ---------------- ---------- -------------- -------------- --------------
    1 O                    8.0000    -0.10651155     2.21294196     0.00000000
    2 C                    6.0000    -0.31272008     0.86692871     0.00000000
    3 C                    6.0000     0.71887541    -0.01360480     0.00000000
    4 H                    1.0000    -0.96185216     2.66400694     0.00000000
    5 H                    1.0000    -1.34843688     0.51069945     0.00000000
    6 C                    6.0000     0.43925095    -1.46104852     0.00000000
    7 H                    1.0000     1.75415071     0.33685008     0.00000000
    8 O                    8.0000    -0.68762777    -1.96532621     0.00000000
    9 H                    1.0000     1.33993335    -2.11710411     0.00000000

         Total SCF energy =   -265.661576589162
          Total MP2 energy          -266.461335301466
         Total SCF energy =   -265.661545587893
          Total MP2 energy          -266.461335037555
         Total SCF energy =   -265.661607025178
          Total MP2 energy          -266.461335036869
         Total SCF energy =   -265.661562437767
          Total MP2 energy          -266.461335036409
         Total SCF energy =   -265.661590202806
          Total MP2 energy          -266.461335036770
         Total SCF energy =   -265.661576563766
          Total MP2 energy          -266.461335290941
         Total SCF energy =   -265.661576563766
          Total MP2 energy          -266.461335290941
         Total SCF energy =   -265.661595871136
          Total MP2 energy          -266.461334894929
         Total SCF energy =   -265.661556442258
          Total MP2 energy          -266.461334894442
         Total SCF energy =   -265.661575495307
          Total MP2 energy          -266.461334945558
         Total SCF energy =   -265.661576968794
          Total MP2 energy          -266.461334944911
         Total SCF energy =   -265.661576492779
          Total MP2 energy          -266.461335234859
         Total SCF energy =   -265.661576492778
          Total MP2 energy          -266.461335234859
         Total SCF energy =   -265.661560006891
          Total MP2 energy          -266.461334901421
         Total SCF energy =   -265.661592348650
          Total MP2 energy          -266.461334901638
         Total SCF energy =   -265.661592361382
          Total MP2 energy          -266.461334966358
         Total SCF energy =   -265.661560117429
          Total MP2 energy          -266.461334966628
         Total SCF energy =   -265.661576525335
          Total MP2 energy          -266.461335255746
         Total SCF energy =   -265.661576525335
          Total MP2 energy          -266.461335255746
         Total SCF energy =   -265.661600551307
          Total MP2 energy          -266.461335092521
         Total SCF energy =   -265.661552201800
          Total MP2 energy          -266.461335093478
         Total SCF energy =   -265.661566787657
          Total MP2 energy          -266.461335219199
         Total SCF energy =   -265.661586207708
          Total MP2 energy          -266.461335218752
         Total SCF energy =   -265.661576579371
          Total MP2 energy          -266.461335298297
         Total SCF energy =   -265.661576579371
          Total MP2 energy          -266.461335298296
         Total SCF energy =   -265.661586518483
          Total MP2 energy          -266.461335133756
         Total SCF energy =   -265.661566320168
          Total MP2 energy          -266.461335134080
         Total SCF energy =   -265.661580938912
          Total MP2 energy          -266.461335255499
         Total SCF energy =   -265.661572136012
          Total MP2 energy          -266.461335255657
         Total SCF energy =   -265.661576571782
          Total MP2 energy          -266.461335289339
         Total SCF energy =   -265.661576571783
          Total MP2 energy          -266.461335289339
         Total SCF energy =   -265.661531311283
          Total MP2 energy          -266.461334875090
         Total SCF energy =   -265.661620978092
          Total MP2 energy          -266.461334874347
         Total SCF energy =   -265.661553104257
          Total MP2 energy          -266.461334992255
         Total SCF energy =   -265.661599411922
          Total MP2 energy          -266.461334992551
         Total SCF energy =   -265.661576465295
          Total MP2 energy          -266.461335212097
         Total SCF energy =   -265.661576465295
          Total MP2 energy          -266.461335212097
         Total SCF energy =   -265.661567273885
          Total MP2 energy          -266.461335132693
         Total SCF energy =   -265.661585565070
          Total MP2 energy          -266.461335132374
         Total SCF energy =   -265.661573113914
          Total MP2 energy          -266.461335260144
         Total SCF energy =   -265.661579970036
          Total MP2 energy          -266.461335260127
         Total SCF energy =   -265.661576574517
          Total MP2 energy          -266.461335290530
         Total SCF energy =   -265.661576574517
          Total MP2 energy          -266.461335290530
         Total SCF energy =   -265.661633309358
          Total MP2 energy          -266.461334984287
         Total SCF energy =   -265.661519235227
          Total MP2 energy          -266.461334985137
         Total SCF energy =   -265.661601392752
          Total MP2 energy          -266.461335204388
         Total SCF energy =   -265.661551563847
          Total MP2 energy          -266.461335204565
         Total SCF energy =   -265.661576562213
          Total MP2 energy          -266.461335289955
         Total SCF energy =   -265.661576562213
          Total MP2 energy          -266.461335289955
         Total SCF energy =   -265.661566315120
          Total MP2 energy          -266.461335188408
         Total SCF energy =   -265.661586628985
          Total MP2 energy          -266.461335188331
         Total SCF energy =   -265.661581978652
          Total MP2 energy          -266.461335222204
         Total SCF energy =   -265.661571032023
          Total MP2 energy          -266.461335222070
         Total SCF energy =   -265.661576573831
          Total MP2 energy          -266.461335290864
         Total SCF energy =   -265.661576573831
          Total MP2 energy          -266.461335290864
 Zero-Point correction to Energy  =   41.741 kcal/mol  (  0.066518 au)
 Thermal correction to Energy     =   45.121 kcal/mol  (  0.071905 au)
 Thermal correction to Enthalpy   =   45.713 kcal/mol  (  0.072849 au)
 Total Entropy                    =   72.894 cal/mol-K
   - Translational                =   38.722 cal/mol-K (mol. weight =  72.0211)
   - Rotational                   =   25.304 cal/mol-K (symmetry #  =        1)
   - Vibrational                  =    8.867 cal/mol-K
   - Translational                  =    2.979 cal/mol-K
   - Rotational                     =    2.979 cal/mol-K
   - Vibrational                    =   11.644 cal/mol-K
 P.Frequency       -0.00       -0.00       -0.00       -0.00       -0.00        0.00
 P.Frequency      166.46      204.99      252.58      429.99      438.25      738.33
 P.Frequency      818.80      968.56      994.18     1003.74     1162.43     1241.24
 P.Frequency     1330.51     1365.29     1418.62     1677.29     1732.28     2986.18
 P.Frequency     3215.92     3239.28     3827.15

 Normal Eigenvalue ||           Projected Infra Red Intensities
  Mode   [cm**-1]  || [atomic units] [(debye/angs)**2] [(KM/mol)] [arbitrary]
 ------ ---------- || -------------- ----------------- ---------- -----------
    1       -0.000 ||    0.000739           0.017         0.721       0.134
    2       -0.000 ||    0.000011           0.000         0.011       0.002
    3       -0.000 ||    0.000752           0.017         0.733       0.136
    4       -0.000 ||    0.000012           0.000         0.012       0.002
    5       -0.000 ||    0.000953           0.022         0.929       0.173
    6        0.000 ||    0.000748           0.017         0.729       0.136
    7      166.464 ||    0.041734           0.963        40.684       7.567
    8      204.993 ||    0.012085           0.279        11.781       2.191
    9      252.582 ||    0.000001           0.000         0.001       0.000
   10      429.991 ||    0.102640           2.368       100.059      18.609
   11      438.250 ||    0.004107           0.095         4.004       0.745
   12      738.326 ||    0.096825           2.234        94.390      17.555
   13      818.796 ||    0.009893           0.228         9.644       1.794
   14      968.557 ||    0.035114           0.810        34.231       6.367
   15      994.182 ||    0.035932           0.829        35.028       6.515
   16     1003.742 ||    0.000038           0.001         0.037       0.007
   17     1162.428 ||    0.001904           0.044         1.856       0.345
   18     1241.241 ||    0.204563           4.719       199.418      37.089
   19     1330.513 ||    0.002149           0.050         2.095       0.390
   20     1365.285 ||    0.122721           2.831       119.635      22.250
   21     1418.620 ||    0.010585           0.244        10.319       1.919
   22     1677.295 ||    0.395142           9.116       385.204      71.642
   23     1732.277 ||    0.126724           2.924       123.537      22.976
   24     2986.183 ||    0.130411           3.009       127.131      23.644
   25     3215.922 ||    0.000945           0.022         0.921       0.171
   26     3239.281 ||    0.003079           0.071         3.001       0.558
   27     3827.154 ||    0.149377           3.446       145.621      27.083
 ----------------------------------------------------------------------------

 Total times  cpu:     3454.0s     wall:     3508.2s
