============================== echo of input deck ==============================
echo
start 8tC_
title "H,CHO,H Chelate"
charge 0

geometry
 zmatrix
  O
  C  1  R1
  C  2  R2  1  A1
  C  3  R3  2  A2  1  D0
  O  4  R4  3  A3  2  D0
  H  1  R5  2  A4  3  D0
  H  2  R6  3  A5  4  D180
  C  3  R7  2  A6  1  D180
  H  4  R8  3  A7  2  D180
  O  8  R9  3  A8  2  D180
  H  8  R10 3  A9  2  D0
  variables
    R1  1.329
    R2  1.363
    A1  124.5
    R3  1.440
    A2  119.5
    R4  1.249
    A3  123.5
    R5  0.994
    A4  105.4
    R6  1.085
    A5  122.5
    R7  1.478
    A6  120.0
    R8  1.099
    A7  117.6
    R9  1.250
    A8  120.0
    R10 1.000
    A9  120.0
  constants
    D0  0.000
    D180 180.0
 end
end

basis spherical
 * library aug-cc-pVDZ
end

set lindep:n_dep 0

set cphf:maxsub 95
set cphf:maxiter 999
set int:acc_std 1d-16
set fock:densityscreen f

scf
 maxiter 99
 vectors input atomic
 thresh 1d-9
 tol2e 1d-15
end

mp2
 freeze atomic
 tight
end

driver
 clear
 maxiter 99
 tight
end

set "mp2:aotol2e fock" 1d-15
set mp2:aotol2e 1d-15
set mp2:backtol 1d-15

task mp2 optimize
task mp2 frequencies

================================================================================

         Total SCF energy =   -378.407923045569
          Total MP2 energy          -379.528179981824
@ Step       Energy      Delta E   Gmax     Grms     Xrms     Xmax   Walltime
@ ---- ---------------- -------- -------- -------- -------- -------- --------
@    0    -379.52817998  0.0D+00  0.09537  0.01944  0.00000  0.00000    179.8
         Total SCF energy =   -378.415368267919
          Total MP2 energy          -379.538926689618
         Total SCF energy =   -378.415955534733
          Total MP2 energy          -379.538969224920
@    1    -379.53896922 -1.1D-02  0.00908  0.00365  0.04468  0.15500    416.3
         Total SCF energy =   -378.413819237790
          Total MP2 energy          -379.536647180098
         Total SCF energy =   -378.416599395882
          Total MP2 energy          -379.539458679072
@    2    -379.53945868 -4.9D-04  0.00510  0.00176  0.02145  0.07610    657.7
         Total SCF energy =   -378.416821546617
          Total MP2 energy          -379.539456087511
         Total SCF energy =   -378.416902524328
          Total MP2 energy          -379.539632032264
@    3    -379.53963203 -1.7D-04  0.00273  0.00084  0.01827  0.04592    890.0
         Total SCF energy =   -378.417232276875
          Total MP2 energy          -379.539688675924
         Total SCF energy =   -378.417163843089
          Total MP2 energy          -379.539703636219
@    4    -379.53970364 -7.2D-05  0.00073  0.00021  0.00696  0.02061   1113.1
         Total SCF energy =   -378.417002160799
          Total MP2 energy          -379.539704256631
         Total SCF energy =   -378.417076329630
          Total MP2 energy          -379.539705476333
@    5    -379.53970548 -1.8D-06  0.00021  0.00008  0.00108  0.00363   1327.4
         Total SCF energy =   -378.417012966086
          Total MP2 energy          -379.539705613184
         Total SCF energy =   -378.417036778233
          Total MP2 energy          -379.539705688857
@    6    -379.53970569 -2.1D-07  0.00010  0.00003  0.00037  0.00120   1530.2
         Total SCF energy =   -378.417039039654
          Total MP2 energy          -379.539705728311
         Total SCF energy =   -378.417039039654
          Total MP2 energy          -379.539705728311
@    7    -379.53970573 -3.9D-08  0.00002  0.00001  0.00015  0.00039   1686.8
         Total SCF energy =   -378.417038816773
          Total MP2 energy          -379.539705730737
         Total SCF energy =   -378.417038816773
          Total MP2 energy          -379.539705730737
@    8    -379.53970573 -2.4D-09  0.00002  0.00001  0.00014  0.00040   1841.8
         Total SCF energy =   -378.417036227078

 Vector   58  Occ=0.000000D+00  E= 3.237615D-01  Symmetry=a'

 Vector   59  Occ=0.000000D+00  E= 3.432161D-01  Symmetry=a'

 Vector   60  Occ=0.000000D+00  E= 3.447599D-01  Symmetry=a'

 Vector   61  Occ=0.000000D+00  E= 3.528793D-01  Symmetry=a'

 Vector   62  Occ=0.000000D+00  E= 3.852601D-01  Symmetry=a'

 Vector   63  Occ=0.000000D+00  E= 3.884257D-01  Symmetry=a'

 Vector   64  Occ=0.000000D+00  E= 4.002005D-01  Symmetry=a"

 Vector   65  Occ=0.000000D+00  E= 4.054475D-01  Symmetry=a'

 Vector   66  Occ=0.000000D+00  E= 4.059012D-01  Symmetry=a"

 Vector   67  Occ=0.000000D+00  E= 4.362520D-01  Symmetry=a"

 Vector   68  Occ=0.000000D+00  E= 4.478086D-01  Symmetry=a'

 Vector   69  Occ=0.000000D+00  E= 4.549075D-01  Symmetry=a'

 Vector   70  Occ=0.000000D+00  E= 4.643367D-01  Symmetry=a'

 Vector   71  Occ=0.000000D+00  E= 4.789077D-01  Symmetry=a"

 Vector   72  Occ=0.000000D+00  E= 5.007528D-01  Symmetry=a'

          Total MP2 energy          -379.539705733785
         Total SCF energy =   -378.417036227078
          Total MP2 energy          -379.539705733785
@    9    -379.53970573 -3.0D-09  0.00000  0.00000  0.00006  0.00015   1994.3
         Total SCF energy =   -378.417036384788

 Vector    8  Occ=2.000000D+00  E=-1.468435D+00  Symmetry=a'

 Vector    9  Occ=2.000000D+00  E=-1.406743D+00  Symmetry=a'

 Vector   10  Occ=2.000000D+00  E=-1.394768D+00  Symmetry=a'

 Vector   11  Occ=2.000000D+00  E=-1.115233D+00  Symmetry=a'

 Vector   12  Occ=2.000000D+00  E=-9.315061D-01  Symmetry=a'

 Vector   13  Occ=2.000000D+00  E=-8.883591D-01  Symmetry=a'

 Vector   14  Occ=2.000000D+00  E=-8.353144D-01  Symmetry=a'

 Vector   15  Occ=2.000000D+00  E=-7.242625D-01  Symmetry=a'

 Vector   16  Occ=2.000000D+00  E=-7.157926D-01  Symmetry=a'

 Vector   17  Occ=2.000000D+00  E=-6.700122D-01  Symmetry=a'

 Vector   18  Occ=2.000000D+00  E=-6.490128D-01  Symmetry=a'

 Vector   19  Occ=2.000000D+00  E=-6.404372D-01  Symmetry=a'

 Vector   20  Occ=2.000000D+00  E=-6.316340D-01  Symmetry=a"

 Vector   21  Occ=2.000000D+00  E=-6.041247D-01  Symmetry=a'

 Vector   22  Occ=2.000000D+00  E=-5.630557D-01  Symmetry=a"

 Vector   23  Occ=2.000000D+00  E=-5.388655D-01  Symmetry=a"

 Vector   24  Occ=2.000000D+00  E=-4.682531D-01  Symmetry=a'

 Vector   25  Occ=2.000000D+00  E=-4.366511D-01  Symmetry=a'

 Vector   26  Occ=2.000000D+00  E=-3.875488D-01  Symmetry=a"

 Vector   27  Occ=0.000000D+00  E= 2.688786D-02  Symmetry=a'

 Vector   28  Occ=0.000000D+00  E= 4.544923D-02  Symmetry=a"

 Vector   29  Occ=0.000000D+00  E= 4.679640D-02  Symmetry=a'

 Vector   30  Occ=0.000000D+00  E= 4.886217D-02  Symmetry=a'

 Vector   31  Occ=0.000000D+00  E= 6.404552D-02  Symmetry=a'

 Vector   32  Occ=0.000000D+00  E= 7.447464D-02  Symmetry=a"

 Vector   33  Occ=0.000000D+00  E= 8.921653D-02  Symmetry=a"

 Vector   34  Occ=0.000000D+00  E= 9.379130D-02  Symmetry=a'

 Vector   35  Occ=0.000000D+00  E= 1.007887D-01  Symmetry=a'

 Vector   36  Occ=0.000000D+00  E= 1.268479D-01  Symmetry=a'

 Vector   37  Occ=0.000000D+00  E= 1.310394D-01  Symmetry=a"

 Vector   38  Occ=0.000000D+00  E= 1.361541D-01  Symmetry=a'

 Vector   39  Occ=0.000000D+00  E= 1.399951D-01  Symmetry=a"

 Vector   40  Occ=0.000000D+00  E= 1.436335D-01  Symmetry=a'

 Vector   41  Occ=0.000000D+00  E= 1.563177D-01  Symmetry=a'

 Vector   42  Occ=0.000000D+00  E= 1.619963D-01  Symmetry=a'

 Vector   43  Occ=0.000000D+00  E= 1.713547D-01  Symmetry=a'

 Vector   44  Occ=0.000000D+00  E= 1.774005D-01  Symmetry=a'

 Vector   45  Occ=0.000000D+00  E= 1.878979D-01  Symmetry=a"

 Vector   46  Occ=0.000000D+00  E= 2.215666D-01  Symmetry=a'

 Vector   47  Occ=0.000000D+00  E= 2.238596D-01  Symmetry=a"

 Vector   48  Occ=0.000000D+00  E= 2.452830D-01  Symmetry=a'

 Vector   49  Occ=0.000000D+00  E= 2.497316D-01  Symmetry=a'

 Vector   50  Occ=0.000000D+00  E= 2.580348D-01  Symmetry=a'

 Vector   51  Occ=0.000000D+00  E= 2.674597D-01  Symmetry=a'

 Vector   52  Occ=0.000000D+00  E= 2.674623D-01  Symmetry=a"

 Vector   53  Occ=0.000000D+00  E= 2.725085D-01  Symmetry=a"

 Vector   54  Occ=0.000000D+00  E= 2.853157D-01  Symmetry=a'

 Vector   55  Occ=0.000000D+00  E= 3.125735D-01  Symmetry=a'

 Vector   56  Occ=0.000000D+00  E= 3.166298D-01  Symmetry=a"

 Vector   57  Occ=0.000000D+00  E= 3.170112D-01  Symmetry=a'

 Vector   58  Occ=0.000000D+00  E= 3.237617D-01  Symmetry=a'

 Vector   59  Occ=0.000000D+00  E= 3.432162D-01  Symmetry=a'

 Vector   60  Occ=0.000000D+00  E= 3.447600D-01  Symmetry=a'

 Vector   61  Occ=0.000000D+00  E= 3.528797D-01  Symmetry=a'

 Vector   62  Occ=0.000000D+00  E= 3.852604D-01  Symmetry=a'

 Vector   63  Occ=0.000000D+00  E= 3.884260D-01  Symmetry=a'

 Vector   64  Occ=0.000000D+00  E= 4.002007D-01  Symmetry=a"

 Vector   65  Occ=0.000000D+00  E= 4.054479D-01  Symmetry=a'

 Vector   66  Occ=0.000000D+00  E= 4.059013D-01  Symmetry=a"

 Vector   67  Occ=0.000000D+00  E= 4.362521D-01  Symmetry=a"

 Vector   68  Occ=0.000000D+00  E= 4.478091D-01  Symmetry=a'

 Vector   69  Occ=0.000000D+00  E= 4.549079D-01  Symmetry=a'

 Vector   70  Occ=0.000000D+00  E= 4.643380D-01  Symmetry=a'

 Vector   71  Occ=0.000000D+00  E= 4.789080D-01  Symmetry=a"

 Vector   72  Occ=0.000000D+00  E= 5.007531D-01  Symmetry=a'

       Multipole analysis of the density wrt the origin
       ------------------------------------------------

     L   x y z        total         open         nuclear
     -   - - -        -----         ----         -------
     0   0 0 0     -0.000000      0.000000     52.000000

     1   1 0 0     -1.128786      0.000000      0.138218
     1   0 1 0      0.291062      0.000000     -0.447324
     1   0 0 1     -0.000000      0.000000      0.000000

     2   2 0 0    -27.425706      0.000000    206.351921
     2   1 1 0      0.396740      0.000000      6.041315
     2   1 0 1     -0.000000      0.000000      0.000000
     2   0 2 0    -40.727426      0.000000    466.867128
     2   0 1 1      0.000000      0.000000      0.000000

          Total MP2 energy          -379.539705733818
         Total SCF energy =   -378.417036384788
          Total MP2 energy          -379.539705733818
@   10    -379.53970573 -3.3D-11  0.00000  0.00000  0.00001  0.00003   2134.9
@   10    -379.53970573 -3.3D-11  0.00000  0.00000  0.00001  0.00003   2134.9

 Output coordinates in angstroms (scale by  1.889725989 to convert to a.u.)

  No.       Tag          Charge          X              Y              Z
 ---- ---------------- ---------- -------------- -------------- --------------
    1 O                    8.0000    -0.90338533     2.03329027     0.00000000
    2 C                    6.0000    -1.16901253     0.73745610     0.00000000
    3 C                    6.0000    -0.20370856    -0.25200191     0.00000000
    4 C                    6.0000     1.20602281     0.13171803     0.00000000
    5 O                    8.0000     1.57233719     1.32734227     0.00000000
    6 H                    1.0000     0.10023804     2.09765307     0.00000000
    7 H                    1.0000    -2.23961955     0.50046937     0.00000000
    8 C                    6.0000    -0.61592258    -1.66379773     0.00000000
    9 H                    1.0000     1.95506944    -0.68154389     0.00000000
   10 O                    8.0000     0.16523020    -2.61567309     0.00000000
   11 H                    1.0000    -1.72027746    -1.83321458     0.00000000

         Total SCF energy =   -378.417036384788
          Total MP2 energy          -379.539705733818
         Total SCF energy =   -378.417058335507
          Total MP2 energy          -379.539705485868
         Total SCF energy =   -378.417013910601
          Total MP2 energy          -379.539705487922
         Total SCF energy =   -378.417002227038
          Total MP2 energy          -379.539705484026
         Total SCF energy =   -378.417070038287
          Total MP2 energy          -379.539705482848
         Total SCF energy =   -378.417036340705
          Total MP2 energy          -379.539705706350
         Total SCF energy =   -378.417036340706
          Total MP2 energy          -379.539705706351
         Total SCF energy =   -378.417046384683
          Total MP2 energy          -379.539705336116
         Total SCF energy =   -378.417025541249
          Total MP2 energy          -379.539705336391
         Total SCF energy =   -378.417050337105
          Total MP2 energy          -379.539705365280
         Total SCF energy =   -378.417021728133
          Total MP2 energy          -379.539705365577
         Total SCF energy =   -378.417036273744
          Total MP2 energy          -379.539705653739
         Total SCF energy =   -378.417036273744
          Total MP2 energy          -379.539705653739
         Total SCF energy =   -378.417023192587
          Total MP2 energy          -379.539705391300
         Total SCF energy =   -378.417048865173
          Total MP2 energy          -379.539705390158
         Total SCF energy =   -378.417044231789
          Total MP2 energy          -379.539705374846
         Total SCF energy =   -378.417027792088
          Total MP2 energy          -379.539705375932
         Total SCF energy =   -378.417036320239
          Total MP2 energy          -379.539705683749
         Total SCF energy =   -378.417036320239
          Total MP2 energy          -379.539705683749
         Total SCF energy =   -378.417056208932
          Total MP2 energy          -379.539705421335
         Total SCF energy =   -378.417015889371
          Total MP2 energy          -379.539705424030
         Total SCF energy =   -378.417080898906
          Total MP2 energy          -379.539705303759
         Total SCF energy =   -378.416990988440
          Total MP2 energy          -379.539705306281
         Total SCF energy =   -378.417036259489
          Total MP2 energy          -379.539705641823
         Total SCF energy =   -378.417036259489
          Total MP2 energy          -379.539705641823
         Total SCF energy =   -378.417019225868
          Total MP2 energy          -379.539705649191
         Total SCF energy =   -378.417053341300
          Total MP2 energy          -379.539705648326
         Total SCF energy =   -378.416977995249
          Total MP2 energy          -379.539705419525
         Total SCF energy =   -378.417094156302
          Total MP2 energy          -379.539705417601
         Total SCF energy =   -378.417036353782
          Total MP2 energy          -379.539705717164
         Total SCF energy =   -378.417036353782
          Total MP2 energy          -379.539705717164
         Total SCF energy =   -378.417008409038
          Total MP2 energy          -379.539705569410
         Total SCF energy =   -378.417064030618
          Total MP2 energy          -379.539705566662
         Total SCF energy =   -378.417040205636
          Total MP2 energy          -379.539705691869
         Total SCF energy =   -378.417032455099
          Total MP2 energy          -379.539705690837
         Total SCF energy =   -378.417036360812
          Total MP2 energy          -379.539705716393
         Total SCF energy =   -378.417036360811
          Total MP2 energy          -379.539705716392
         Total SCF energy =   -378.417046458334
          Total MP2 energy          -379.539705559493
         Total SCF energy =   -378.417025959235
          Total MP2 energy          -379.539705559966
         Total SCF energy =   -378.417038560666
          Total MP2 energy          -379.539705694738
         Total SCF energy =   -378.417034119053
          Total MP2 energy          -379.539705694949
         Total SCF energy =   -378.417036366160
          Total MP2 energy          -379.539705720481
         Total SCF energy =   -378.417036366160
          Total MP2 energy          -379.539705720481
         Total SCF energy =   -378.417065474214
          Total MP2 energy          -379.539705362911
         Total SCF energy =   -378.417006504104
          Total MP2 energy          -379.539705364505
         Total SCF energy =   -378.416997101198
          Total MP2 energy          -379.539705363592
         Total SCF energy =   -378.417074895864
          Total MP2 energy          -379.539705363069
         Total SCF energy =   -378.417036260790
          Total MP2 energy          -379.539705643901
         Total SCF energy =   -378.417036260789
          Total MP2 energy          -379.539705643901
         Total SCF energy =   -378.417028918757
          Total MP2 energy          -379.539705636313
         Total SCF energy =   -378.417043646670
          Total MP2 energy          -379.539705635589
         Total SCF energy =   -378.417045253807
          Total MP2 energy          -379.539705629976
         Total SCF energy =   -378.417027298482
          Total MP2 energy          -379.539705629444
         Total SCF energy =   -378.417036368013
          Total MP2 energy          -379.539705721902
         Total SCF energy =   -378.417036368014
          Total MP2 energy          -379.539705721903
         Total SCF energy =   -378.416995931273
          Total MP2 energy          -379.539705559293
         Total SCF energy =   -378.417076469947
          Total MP2 energy          -379.539705558466
         Total SCF energy =   -378.417084815173
          Total MP2 energy          -379.539705488940
         Total SCF energy =   -378.416987451429
          Total MP2 energy          -379.539705490342
         Total SCF energy =   -378.417036357364
          Total MP2 energy          -379.539705722151
         Total SCF energy =   -378.417036357364
          Total MP2 energy          -379.539705722151
         Total SCF energy =   -378.417049039833
          Total MP2 energy          -379.539705583337
         Total SCF energy =   -378.417023420495
          Total MP2 energy          -379.539705582357
         Total SCF energy =   -378.417035989963
          Total MP2 energy          -379.539705696543
         Total SCF energy =   -378.417036693248
          Total MP2 energy          -379.539705696192
         Total SCF energy =   -378.417036368672
          Total MP2 energy          -379.539705722820
         Total SCF energy =   -378.417036368672
          Total MP2 energy          -379.539705722820
 Zero-Point correction to Energy  =   48.395 kcal/mol  (  0.077122 au)
 Thermal correction to Energy     =   52.461 kcal/mol  (  0.083602 au)
 Thermal correction to Enthalpy   =   53.053 kcal/mol  (  0.084546 au)
 Total Entropy                    =   79.944 cal/mol-K
   - Translational                =   39.701 cal/mol-K (mol. weight = 100.0160)
   - Rotational                   =   27.535 cal/mol-K (symmetry #  =        1)
   - Vibrational                  =   12.709 cal/mol-K
   - Translational                  =    2.979 cal/mol-K
   - Rotational                     =    2.979 cal/mol-K
   - Vibrational                    =   16.353 cal/mol-K
 P.Frequency       -0.00       -0.00       -0.00       -0.00        0.00        0.00
 P.Frequency      130.77      209.50      238.30      283.20      330.35      402.91
 P.Frequency      498.07      517.14      733.82      931.81      942.69      992.02
 P.Frequency     1035.34     1050.07     1251.43     1281.20     1362.50     1395.34
 P.Frequency     1436.56     1450.32     1638.17     1690.86     1717.61     2951.33
 P.Frequency     3086.77     3101.13     3209.42

 Normal Eigenvalue ||           Projected Infra Red Intensities
  Mode   [cm**-1]  || [atomic units] [(debye/angs)**2] [(KM/mol)] [arbitrary]
 ------ ---------- || -------------- ----------------- ---------- -----------
    1       -0.000 ||    0.000235           0.005         0.229       0.041
    2       -0.000 ||    0.000030           0.001         0.030       0.005
    3       -0.000 ||    0.001041           0.024         1.015       0.183
    4       -0.000 ||    0.000890           0.021         0.868       0.157
    5        0.000 ||    0.000005           0.000         0.005       0.001
    6        0.000 ||    0.000344           0.008         0.336       0.061
    7      130.772 ||    0.013051           0.301        12.723       2.299
    8      209.496 ||    0.014384           0.332        14.022       2.534
    9      238.302 ||    0.000859           0.020         0.838       0.151
   10      283.195 ||    0.004347           0.100         4.238       0.766
   11      330.352 ||    0.007120           0.164         6.941       1.254
   12      402.907 ||    0.001621           0.037         1.580       0.285
   13      498.069 ||    0.000842           0.019         0.821       0.148
   14      517.142 ||    0.018051           0.416        17.597       3.180
   15      733.818 ||    0.039850           0.919        38.848       7.020
   16      931.811 ||    0.015785           0.364        15.388       2.781
   17      942.695 ||    0.037024           0.854        36.093       6.522
   18      992.024 ||    0.012503           0.288        12.189       2.202
   19     1035.337 ||    0.008442           0.195         8.230       1.487
   20     1050.067 ||    0.056415           1.302        54.997       9.938
   21     1251.427 ||    0.111739           2.578       108.929      19.683
   22     1281.200 ||    0.176662           4.076       172.219      31.120
   23     1362.500 ||    0.060336           1.392        58.818      10.628
   24     1395.337 ||    0.027460           0.634        26.769       4.837
   25     1436.557 ||    0.025839           0.596        25.189       4.552
   26     1450.325 ||    0.056006           1.292        54.598       9.866
   27     1638.168 ||    0.141837           3.272       138.270      24.985
   28     1690.856 ||    0.195337           4.507       190.424      34.409
   29     1717.612 ||    0.451246          10.411       439.897      79.489
   30     2951.328 ||    0.090624           2.091        88.345      15.964
   31     3086.771 ||    0.271974           6.275       265.134      47.909
   32     3101.128 ||    0.030282           0.699        29.520       5.334
   33     3209.419 ||    0.001172           0.027         1.143       0.207
 ----------------------------------------------------------------------------

 Total times  cpu:    11637.5s     wall:    11807.6s
