============================== echo of input deck ==============================
echo
start 8tO_
title "H,CHO,H Chelate"
charge 0

geometry
 zmatrix
  O
  C  1  R1
  C  2  R2  1  A1
  C  3  R3  2  A2  1  D0
  O  4  R4  3  A3  2  D0
  H  1  R5  2  A4  3  D180
  H  2  R6  3  A5  4  D180
  C  3  R7  2  A6  1  D180
  H  4  R8  3  A7  2  D180
  O  8  R9  3  A8  2  D180
  H  8  R10 3  A9  2  D0
  variables
    R1  1.329
    R2  1.363
    A1  124.5
    R3  1.440
    A2  119.5
    R4  1.249
    A3  123.5
    R5  0.994
    A4  105.4
    R6  1.085
    A5  122.5
    R7  1.478
    A6  120.0
    R8  1.099
    A7  117.6
    R9  1.250
    A8  120.0
    R10 1.000
    A9  120.0
  constants
    D0  0.000
    D180 180.0
 end
end

basis spherical
 * library aug-cc-pVDZ
end

set lindep:n_dep 0

set cphf:maxsub 95
set cphf:maxiter 999
set int:acc_std 1d-16
set fock:densityscreen f

scf
 maxiter 99
 vectors input atomic
 thresh 1d-9
 tol2e 1d-15
end

mp2
 freeze atomic
 tight
end

driver
 clear
 maxiter 99
 tight
end

set "mp2:aotol2e fock" 1d-15
set mp2:aotol2e 1d-15
set mp2:backtol 1d-15

task mp2 optimize
task mp2 frequencies

================================================================================

         Total SCF energy =   -378.381208454338
          Total MP2 energy          -379.502990758380
@ Step       Energy      Delta E   Gmax     Grms     Xrms     Xmax   Walltime
@ ---- ---------------- -------- -------- -------- -------- -------- --------
@    0    -379.50299076  0.0D+00  0.09567  0.02138  0.00000  0.00000    177.1
         Total SCF energy =   -378.396506761015
          Total MP2 energy          -379.517830517190
         Total SCF energy =   -378.396729826812
          Total MP2 energy          -379.517979382298
@    1    -379.51797938 -1.5D-02  0.00919  0.00409  0.08797  0.25223    402.9
         Total SCF energy =   -378.397274877036
          Total MP2 energy          -379.518161119205
         Total SCF energy =   -378.398017327653
          Total MP2 energy          -379.518954672065
@    2    -379.51895467 -9.8D-04  0.00343  0.00159  0.04849  0.13324    635.8
         Total SCF energy =   -378.398961061561
          Total MP2 energy          -379.519101259093
         Total SCF energy =   -378.398764636779
          Total MP2 energy          -379.519133358457
@    3    -379.51913336 -1.8D-04  0.00209  0.00069  0.01507  0.03697    847.1
         Total SCF energy =   -378.398975529725
          Total MP2 energy          -379.519149662876
         Total SCF energy =   -378.398915750008
          Total MP2 energy          -379.519171151690
@    4    -379.51917115 -3.8D-05  0.00069  0.00023  0.00577  0.01582   1061.5
         Total SCF energy =   -378.398856846873
          Total MP2 energy          -379.519173330497
         Total SCF energy =   -378.398868151845
          Total MP2 energy          -379.519173445174
@    5    -379.51917345 -2.3D-06  0.00018  0.00006  0.00107  0.00270   1254.9
         Total SCF energy =   -378.398869878361
          Total MP2 energy          -379.519173637294
         Total SCF energy =   -378.398869593551
          Total MP2 energy          -379.519173649582
@    6    -379.51917365 -2.0D-07  0.00007  0.00002  0.00058  0.00165   1449.9
         Total SCF energy =   -378.398874759011
          Total MP2 energy          -379.519173675787
         Total SCF energy =   -378.398874759011
          Total MP2 energy          -379.519173675787
@    7    -379.51917368 -2.6D-08  0.00007  0.00002  0.00024  0.00067   1600.1
         Total SCF energy =   -378.398869976551

 Vector   60  Occ=0.000000D+00  E= 3.548487D-01  Symmetry=a'

 Vector   61  Occ=0.000000D+00  E= 3.658633D-01  Symmetry=a'

 Vector   62  Occ=0.000000D+00  E= 3.718301D-01  Symmetry=a'

 Vector   63  Occ=0.000000D+00  E= 3.820068D-01  Symmetry=a"

 Vector   64  Occ=0.000000D+00  E= 3.992729D-01  Symmetry=a'

 Vector   65  Occ=0.000000D+00  E= 4.005954D-01  Symmetry=a'

 Vector   66  Occ=0.000000D+00  E= 4.064500D-01  Symmetry=a"

 Vector   67  Occ=0.000000D+00  E= 4.387029D-01  Symmetry=a'

 Vector   68  Occ=0.000000D+00  E= 4.426258D-01  Symmetry=a"

 Vector   69  Occ=0.000000D+00  E= 4.512596D-01  Symmetry=a'

 Vector   70  Occ=0.000000D+00  E= 4.660954D-01  Symmetry=a"

 Vector   71  Occ=0.000000D+00  E= 4.752856D-01  Symmetry=a'

 Vector   72  Occ=0.000000D+00  E= 4.949296D-01  Symmetry=a'

 Vector   73  Occ=0.000000D+00  E= 5.061026D-01  Symmetry=a'

          Total MP2 energy          -379.519173695106
         Total SCF energy =   -378.398869976551
          Total MP2 energy          -379.519173695106
@    8    -379.51917370 -1.9D-08  0.00001  0.00000  0.00009  0.00021   1748.1
         Total SCF energy =   -378.398870647394

 Vector    8  Occ=2.000000D+00  E=-1.468980D+00  Symmetry=a'

 Vector    9  Occ=2.000000D+00  E=-1.393400D+00  Symmetry=a'

 Vector   10  Occ=2.000000D+00  E=-1.381322D+00  Symmetry=a'

 Vector   11  Occ=2.000000D+00  E=-1.113805D+00  Symmetry=a'

 Vector   12  Occ=2.000000D+00  E=-9.248050D-01  Symmetry=a'

 Vector   13  Occ=2.000000D+00  E=-8.783413D-01  Symmetry=a'

 Vector   14  Occ=2.000000D+00  E=-7.903380D-01  Symmetry=a'

 Vector   15  Occ=2.000000D+00  E=-7.669065D-01  Symmetry=a'

 Vector   16  Occ=2.000000D+00  E=-7.000378D-01  Symmetry=a'

 Vector   17  Occ=2.000000D+00  E=-6.713687D-01  Symmetry=a'

 Vector   18  Occ=2.000000D+00  E=-6.332979D-01  Symmetry=a"

 Vector   19  Occ=2.000000D+00  E=-6.296523D-01  Symmetry=a'

 Vector   20  Occ=2.000000D+00  E=-6.149292D-01  Symmetry=a'

 Vector   21  Occ=2.000000D+00  E=-5.941344D-01  Symmetry=a'

 Vector   22  Occ=2.000000D+00  E=-5.542583D-01  Symmetry=a"

 Vector   23  Occ=2.000000D+00  E=-5.183688D-01  Symmetry=a"

 Vector   24  Occ=2.000000D+00  E=-4.575613D-01  Symmetry=a'

 Vector   25  Occ=2.000000D+00  E=-4.162453D-01  Symmetry=a'

 Vector   26  Occ=2.000000D+00  E=-3.832521D-01  Symmetry=a"

 Vector   27  Occ=0.000000D+00  E= 1.276050D-02  Symmetry=a'

 Vector   28  Occ=0.000000D+00  E= 3.742256D-02  Symmetry=a'

 Vector   29  Occ=0.000000D+00  E= 5.169188D-02  Symmetry=a"

 Vector   30  Occ=0.000000D+00  E= 5.470843D-02  Symmetry=a'

 Vector   31  Occ=0.000000D+00  E= 6.171676D-02  Symmetry=a'

 Vector   32  Occ=0.000000D+00  E= 7.519812D-02  Symmetry=a"

 Vector   33  Occ=0.000000D+00  E= 9.766016D-02  Symmetry=a'

 Vector   34  Occ=0.000000D+00  E= 1.006244D-01  Symmetry=a"

 Vector   35  Occ=0.000000D+00  E= 1.017314D-01  Symmetry=a'

 Vector   36  Occ=0.000000D+00  E= 1.143196D-01  Symmetry=a'

 Vector   37  Occ=0.000000D+00  E= 1.281112D-01  Symmetry=a"

 Vector   38  Occ=0.000000D+00  E= 1.335939D-01  Symmetry=a'

 Vector   39  Occ=0.000000D+00  E= 1.477107D-01  Symmetry=a'

 Vector   40  Occ=0.000000D+00  E= 1.522632D-01  Symmetry=a"

 Vector   41  Occ=0.000000D+00  E= 1.569271D-01  Symmetry=a'

 Vector   42  Occ=0.000000D+00  E= 1.711931D-01  Symmetry=a'

 Vector   43  Occ=0.000000D+00  E= 1.777717D-01  Symmetry=a'

 Vector   44  Occ=0.000000D+00  E= 1.803479D-01  Symmetry=a'

 Vector   45  Occ=0.000000D+00  E= 1.910900D-01  Symmetry=a"

 Vector   46  Occ=0.000000D+00  E= 2.086392D-01  Symmetry=a'

 Vector   47  Occ=0.000000D+00  E= 2.294979D-01  Symmetry=a"

 Vector   48  Occ=0.000000D+00  E= 2.301931D-01  Symmetry=a'

 Vector   49  Occ=0.000000D+00  E= 2.498924D-01  Symmetry=a'

 Vector   50  Occ=0.000000D+00  E= 2.615743D-01  Symmetry=a'

 Vector   51  Occ=0.000000D+00  E= 2.694912D-01  Symmetry=a"

 Vector   52  Occ=0.000000D+00  E= 2.774264D-01  Symmetry=a'

 Vector   53  Occ=0.000000D+00  E= 2.889587D-01  Symmetry=a'

 Vector   54  Occ=0.000000D+00  E= 2.892859D-01  Symmetry=a"

 Vector   55  Occ=0.000000D+00  E= 2.910615D-01  Symmetry=a'

 Vector   56  Occ=0.000000D+00  E= 3.209802D-01  Symmetry=a'

 Vector   57  Occ=0.000000D+00  E= 3.217207D-01  Symmetry=a"

 Vector   58  Occ=0.000000D+00  E= 3.357712D-01  Symmetry=a'

 Vector   59  Occ=0.000000D+00  E= 3.519261D-01  Symmetry=a'

 Vector   60  Occ=0.000000D+00  E= 3.548490D-01  Symmetry=a'

 Vector   61  Occ=0.000000D+00  E= 3.658640D-01  Symmetry=a'

 Vector   62  Occ=0.000000D+00  E= 3.718302D-01  Symmetry=a'

 Vector   63  Occ=0.000000D+00  E= 3.820082D-01  Symmetry=a"

 Vector   64  Occ=0.000000D+00  E= 3.992740D-01  Symmetry=a'

 Vector   65  Occ=0.000000D+00  E= 4.005942D-01  Symmetry=a'

 Vector   66  Occ=0.000000D+00  E= 4.064506D-01  Symmetry=a"

 Vector   67  Occ=0.000000D+00  E= 4.387017D-01  Symmetry=a'

 Vector   68  Occ=0.000000D+00  E= 4.426258D-01  Symmetry=a"

 Vector   69  Occ=0.000000D+00  E= 4.512571D-01  Symmetry=a'

 Vector   70  Occ=0.000000D+00  E= 4.660957D-01  Symmetry=a"

 Vector   71  Occ=0.000000D+00  E= 4.752858D-01  Symmetry=a'

 Vector   72  Occ=0.000000D+00  E= 4.949303D-01  Symmetry=a'

 Vector   73  Occ=0.000000D+00  E= 5.061037D-01  Symmetry=a'

       Multipole analysis of the density wrt the origin
       ------------------------------------------------

     L   x y z        total         open         nuclear
     -   - - -        -----         ----         -------
     0   0 0 0     -0.000000      0.000000     52.000000

     1   1 0 0     -2.381828      0.000000      1.273085
     1   0 1 0      0.746479      0.000000      0.627257
     1   0 0 1      0.000000      0.000000      0.000000

     2   2 0 0    -25.237095      0.000000    240.073832
     2   1 1 0     -6.566765      0.000000     -6.836112
     2   1 0 1     -0.000000      0.000000      0.000000
     2   0 2 0    -36.977896      0.000000    461.436256
     2   0 1 1     -0.000000      0.000000      0.000000

          Total MP2 energy          -379.519173695358
         Total SCF energy =   -378.398870647394
          Total MP2 energy          -379.519173695358
@    9    -379.51917370 -2.5D-10  0.00000  0.00000  0.00001  0.00004   1894.8
@    9    -379.51917370 -2.5D-10  0.00000  0.00000  0.00001  0.00004   1894.8

 Output coordinates in angstroms (scale by  1.889725989 to convert to a.u.)

  No.       Tag          Charge          X              Y              Z
 ---- ---------------- ---------- -------------- -------------- --------------
    1 O                    8.0000    -0.88701891     2.08093346     0.00000000
    2 C                    6.0000    -1.13441908     0.75916504     0.00000000
    3 C                    6.0000    -0.15730442    -0.19905723     0.00000000
    4 C                    6.0000     1.30367300     0.07885726     0.00000000
    5 O                    8.0000     1.79651703     1.20693184     0.00000000
    6 H                    1.0000    -1.72818975     2.56163857     0.00000000
    7 H                    1.0000    -2.18862856     0.45123104     0.00000000
    8 C                    6.0000    -0.63083678    -1.59763814     0.00000000
    9 H                    1.0000     1.93854681    -0.83182674     0.00000000
   10 O                    8.0000     0.10400224    -2.58486460     0.00000000
   11 H                    1.0000    -1.74272016    -1.72108008     0.00000000

         Total SCF energy =   -378.398870647394
          Total MP2 energy          -379.519173695358
         Total SCF energy =   -378.398835728285
          Total MP2 energy          -379.519173437949
         Total SCF energy =   -378.398905006720
          Total MP2 energy          -379.519173436101
         Total SCF energy =   -378.398853993408
          Total MP2 energy          -379.519173412705
         Total SCF energy =   -378.398886736257
          Total MP2 energy          -379.519173414103
         Total SCF energy =   -378.398870618988
          Total MP2 energy          -379.519173682332
         Total SCF energy =   -378.398870618989
          Total MP2 energy          -379.519173682333
         Total SCF energy =   -378.398890025300
          Total MP2 energy          -379.519173311878
         Total SCF energy =   -378.398850450026
          Total MP2 energy          -379.519173312611
         Total SCF energy =   -378.398875295066
          Total MP2 energy          -379.519173321695
         Total SCF energy =   -378.398865264654
          Total MP2 energy          -379.519173321558
         Total SCF energy =   -378.398870545920
          Total MP2 energy          -379.519173624842
         Total SCF energy =   -378.398870545920
          Total MP2 energy          -379.519173624842
         Total SCF energy =   -378.398852629034
          Total MP2 energy          -379.519173345697
         Total SCF energy =   -378.398887916714
          Total MP2 energy          -379.519173347921
         Total SCF energy =   -378.398882438537
          Total MP2 energy          -379.519173354952
         Total SCF energy =   -378.398858144188
          Total MP2 energy          -379.519173353894
         Total SCF energy =   -378.398870580133
          Total MP2 energy          -379.519173644527
         Total SCF energy =   -378.398870580133
          Total MP2 energy          -379.519173644527
         Total SCF energy =   -378.398897312958
          Total MP2 energy          -379.519173406876
         Total SCF energy =   -378.398843338372
          Total MP2 energy          -379.519173404486
         Total SCF energy =   -378.398918809282
          Total MP2 energy          -379.519173258231
         Total SCF energy =   -378.398821563104
          Total MP2 energy          -379.519173258068
         Total SCF energy =   -378.398870524603
          Total MP2 energy          -379.519173606738
         Total SCF energy =   -378.398870524603
          Total MP2 energy          -379.519173606738
         Total SCF energy =   -378.398844307302
          Total MP2 energy          -379.519173602578
         Total SCF energy =   -378.398896769330
          Total MP2 energy          -379.519173601533
         Total SCF energy =   -378.398807787968
          Total MP2 energy          -379.519173373449
         Total SCF energy =   -378.398932845790
          Total MP2 energy          -379.519173372127
         Total SCF energy =   -378.398870620632
          Total MP2 energy          -379.519173684875
         Total SCF energy =   -378.398870620632
          Total MP2 energy          -379.519173684875
         Total SCF energy =   -378.398894962109
          Total MP2 energy          -379.519173496186
         Total SCF energy =   -378.398845925484
          Total MP2 energy          -379.519173496875
         Total SCF energy =   -378.398860193704
          Total MP2 energy          -379.519173605807
         Total SCF energy =   -378.398880905792
          Total MP2 energy          -379.519173607640
         Total SCF energy =   -378.398870636336
          Total MP2 energy          -379.519173690807
         Total SCF energy =   -378.398870636336
          Total MP2 energy          -379.519173690808
         Total SCF energy =   -378.398881028741
          Total MP2 energy          -379.519173528587
         Total SCF energy =   -378.398859928534
          Total MP2 energy          -379.519173529061
         Total SCF energy =   -378.398875067560
          Total MP2 energy          -379.519173651594
         Total SCF energy =   -378.398866125450
          Total MP2 energy          -379.519173650405
         Total SCF energy =   -378.398870630283
          Total MP2 energy          -379.519173683667
         Total SCF energy =   -378.398870630283
          Total MP2 energy          -379.519173683666
         Total SCF energy =   -378.398897822208
          Total MP2 energy          -379.519173333266
         Total SCF energy =   -378.398842698674
          Total MP2 energy          -379.519173337867
         Total SCF energy =   -378.398827951488
          Total MP2 energy          -379.519173321469
         Total SCF energy =   -378.398912555956
          Total MP2 energy          -379.519173318486
         Total SCF energy =   -378.398870523509
          Total MP2 energy          -379.519173605248
         Total SCF energy =   -378.398870523509
          Total MP2 energy          -379.519173605249
         Total SCF energy =   -378.398864840524
          Total MP2 energy          -379.519173616541
         Total SCF energy =   -378.398876286842
          Total MP2 energy          -379.519173616725
         Total SCF energy =   -378.398881841735
          Total MP2 energy          -379.519173576988
         Total SCF energy =   -378.398859207303
          Total MP2 energy          -379.519173576947
         Total SCF energy =   -378.398870631850
          Total MP2 energy          -379.519173684733
         Total SCF energy =   -378.398870631850
          Total MP2 energy          -379.519173684734
         Total SCF energy =   -378.398831942558
          Total MP2 energy          -379.519173536328
         Total SCF energy =   -378.398909009868
          Total MP2 energy          -379.519173533732
         Total SCF energy =   -378.398921397449
          Total MP2 energy          -379.519173434366
         Total SCF energy =   -378.398819363695
          Total MP2 energy          -379.519173437723
         Total SCF energy =   -378.398870620150
          Total MP2 energy          -379.519173683887
         Total SCF energy =   -378.398870620150
          Total MP2 energy          -379.519173683887
         Total SCF energy =   -378.398883858788
          Total MP2 energy          -379.519173545264
         Total SCF energy =   -378.398857127080
          Total MP2 energy          -379.519173544132
         Total SCF energy =   -378.398869573250
          Total MP2 energy          -379.519173659014
         Total SCF energy =   -378.398871637149
          Total MP2 energy          -379.519173659291
         Total SCF energy =   -378.398870631326
          Total MP2 energy          -379.519173684427
         Total SCF energy =   -378.398870631326
          Total MP2 energy          -379.519173684426
 Zero-Point correction to Energy  =   47.758 kcal/mol  (  0.076108 au)
 Thermal correction to Energy     =   52.230 kcal/mol  (  0.083233 au)
 Thermal correction to Enthalpy   =   52.822 kcal/mol  (  0.084177 au)
 Total Entropy                    =   83.301 cal/mol-K
   - Translational                =   39.701 cal/mol-K (mol. weight = 100.0160)
   - Rotational                   =   27.687 cal/mol-K (symmetry #  =        1)
   - Vibrational                  =   15.913 cal/mol-K
   - Translational                  =    2.979 cal/mol-K
   - Rotational                     =    2.979 cal/mol-K
   - Vibrational                    =   17.925 cal/mol-K
 P.Frequency       -0.00       -0.00       -0.00       -0.00       -0.00        0.00
 P.Frequency      103.65      123.19      191.77      226.79      321.19      351.94
 P.Frequency      449.82      497.46      548.60      724.17      892.37      914.15
 P.Frequency      999.54     1015.16     1216.79     1245.95     1310.63     1382.29
 P.Frequency     1417.90     1436.82     1669.48     1712.18     1732.41     2931.99
 P.Frequency     3037.21     3170.29     3799.56

 Normal Eigenvalue ||           Projected Infra Red Intensities
  Mode   [cm**-1]  || [atomic units] [(debye/angs)**2] [(KM/mol)] [arbitrary]
 ------ ---------- || -------------- ----------------- ---------- -----------
    1       -0.000 ||    0.001408           0.032         1.372       0.264
    2       -0.000 ||    0.001331           0.031         1.298       0.249
    3       -0.000 ||    0.003843           0.089         3.746       0.720
    4       -0.000 ||    0.001472           0.034         1.435       0.276
    5       -0.000 ||    0.004759           0.110         4.639       0.892
    6        0.000 ||    0.000768           0.018         0.749       0.144
    7      103.654 ||    0.005562           0.128         5.423       1.042
    8      123.191 ||    0.011630           0.268        11.338       2.179
    9      191.769 ||    0.005799           0.134         5.653       1.087
   10      226.785 ||    0.005941           0.137         5.792       1.113
   11      321.188 ||    0.001974           0.046         1.925       0.370
   12      351.944 ||    0.071928           1.659        70.119      13.479
   13      449.816 ||    0.017636           0.407        17.192       3.305
   14      497.461 ||    0.003183           0.073         3.103       0.596
   15      548.604 ||    0.056858           1.312        55.428      10.655
   16      724.166 ||    0.059676           1.377        58.176      11.183
   17      892.375 ||    0.062598           1.444        61.023      11.730
   18      914.149 ||    0.004782           0.110         4.662       0.896
   19      999.536 ||    0.001149           0.027         1.120       0.215
   20     1015.155 ||    0.000143           0.003         0.140       0.027
   21     1216.794 ||    0.030057           0.693        29.301       5.633
   22     1245.955 ||    0.044338           1.023        43.223       8.309
   23     1310.631 ||    0.339503           7.833       330.965      63.621
   24     1382.294 ||    0.016832           0.388        16.409       3.154
   25     1417.902 ||    0.018989           0.438        18.511       3.558
   26     1436.822 ||    0.021129           0.487        20.597       3.959
   27     1669.480 ||    0.147137           3.395       143.437      27.573
   28     1712.184 ||    0.130217           3.004       126.942      24.402
   29     1732.414 ||    0.366375           8.453       357.160      68.656
   30     2931.989 ||    0.096895           2.235        94.458      18.158
   31     3037.207 ||    0.038201           0.881        37.240       7.159
   32     3170.288 ||    0.008436           0.195         8.224       1.581
   33     3799.564 ||    0.180444           4.163       175.905      33.814
 ----------------------------------------------------------------------------

 Total times  cpu:    11154.9s     wall:    11289.1s
