============================== echo of input deck ==============================
echo
start 8tR1
title "H,CHO,H Reference 1"
charge 0

geometry
 zmatrix
  O
  C  1  R1
  C  2  R2  1  A1
  H  1  R5  2  A4  3  D0
  H  2  R6  3  A5  4  D180
  C  3  R7  2  A6  1  D180
  H  3  R8  2  A7  1  D0
  O  6  R9  3  A8  2  D180
  H  6  R10 3  A9  2  D0
  variables
    R1  1.329
    R2  1.363
    A1  124.5
    R5  0.994
    A4  105.4
    R6  1.085
    A5  122.5
    R7  1.478
    A6  120.0
    R8  1.099
    A7  117.6
    R9  1.250
    A8  120.0
    R10 1.000
    A9  120.0
  constants
    D0  0.000
    D180 180.0
 end
end

basis spherical
 * library aug-cc-pVDZ
end

set lindep:n_dep 0

set cphf:maxsub 95
set cphf:maxiter 999
set int:acc_std 1d-16
set fock:densityscreen f

scf
 maxiter 99
 vectors input atomic
 thresh 1d-9
 tol2e 1d-15
end

mp2
 freeze atomic
 tight
end

driver
 clear
 maxiter 99
 tight
end

set "mp2:aotol2e fock" 1d-15
set mp2:aotol2e 1d-15
set mp2:backtol 1d-15

task mp2 optimize
task mp2 frequencies

================================================================================

         Total SCF energy =   -265.652194459073
          Total MP2 energy          -266.452019318067
@ Step       Energy      Delta E   Gmax     Grms     Xrms     Xmax   Walltime
@ ---- ---------------- -------- -------- -------- -------- -------- --------
@    0    -266.45201932  0.0D+00  0.09547  0.02297  0.00000  0.00000     61.7
         Total SCF energy =   -265.663247895219
          Total MP2 energy          -266.464247560607
         Total SCF energy =   -265.663876742459
          Total MP2 energy          -266.464553476973
@    1    -266.46455348 -1.3D-02  0.00977  0.00399  0.07493  0.25386    141.1
         Total SCF energy =   -265.665037487276
          Total MP2 energy          -266.464867760782
         Total SCF energy =   -265.665101443216
          Total MP2 energy          -266.465235875791
@    2    -266.46523588 -6.8D-04  0.00359  0.00139  0.03340  0.10817    217.2
         Total SCF energy =   -265.665655539020
          Total MP2 energy          -266.465420774342
         Total SCF energy =   -265.665655539020
          Total MP2 energy          -266.465420774342
@    3    -266.46542077 -1.8D-04  0.00224  0.00082  0.02803  0.06963    273.2
         Total SCF energy =   -265.665430014008
          Total MP2 energy          -266.465449485954
         Total SCF energy =   -265.665486696854
          Total MP2 energy          -266.465451701825
@    4    -266.46545170 -3.1D-05  0.00060  0.00024  0.00556  0.01805    347.3
         Total SCF energy =   -265.665492898824
          Total MP2 energy          -266.465453819418
         Total SCF energy =   -265.665492207279
          Total MP2 energy          -266.465454148774
@    5    -266.46545415 -2.4D-06  0.00022  0.00010  0.00131  0.00402    415.6
         Total SCF energy =   -265.665495476771
          Total MP2 energy          -266.465454941792
         Total SCF energy =   -265.665495163245
          Total MP2 energy          -266.465454963682
@    6    -266.46545496 -8.1D-07  0.00018  0.00006  0.00130  0.00321    487.0
         Total SCF energy =   -265.665496744007
          Total MP2 energy          -266.465455053584
         Total SCF energy =   -265.665496744007
          Total MP2 energy          -266.465455053584
@    7    -266.46545505 -9.0D-08  0.00004  0.00001  0.00030  0.00086    540.1
         Total SCF energy =   -265.665502321553

 Vector   30  Occ=0.000000D+00  E= 1.422268D-01  Symmetry=a"

 Vector   31  Occ=0.000000D+00  E= 1.466739D-01  Symmetry=a'

 Vector   32  Occ=0.000000D+00  E= 1.554593D-01  Symmetry=a'

 Vector   33  Occ=0.000000D+00  E= 1.672136D-01  Symmetry=a'

 Vector   34  Occ=0.000000D+00  E= 1.729552D-01  Symmetry=a'

 Vector   35  Occ=0.000000D+00  E= 2.064647D-01  Symmetry=a'

 Vector   36  Occ=0.000000D+00  E= 2.225170D-01  Symmetry=a"

 Vector   37  Occ=0.000000D+00  E= 2.349727D-01  Symmetry=a'

 Vector   38  Occ=0.000000D+00  E= 2.548920D-01  Symmetry=a"

 Vector   39  Occ=0.000000D+00  E= 2.559920D-01  Symmetry=a'

 Vector   40  Occ=0.000000D+00  E= 2.661636D-01  Symmetry=a'

 Vector   41  Occ=0.000000D+00  E= 2.901504D-01  Symmetry=a'

 Vector   42  Occ=0.000000D+00  E= 3.072533D-01  Symmetry=a'

 Vector   43  Occ=0.000000D+00  E= 3.075513D-01  Symmetry=a"

 Vector   44  Occ=0.000000D+00  E= 3.116503D-01  Symmetry=a'

 Vector   45  Occ=0.000000D+00  E= 3.191059D-01  Symmetry=a'

 Vector   46  Occ=0.000000D+00  E= 3.537663D-01  Symmetry=a'

 Vector   47  Occ=0.000000D+00  E= 3.726742D-01  Symmetry=a'

 Vector   48  Occ=0.000000D+00  E= 3.763625D-01  Symmetry=a"

 Vector   49  Occ=0.000000D+00  E= 3.934686D-01  Symmetry=a"

 Vector   50  Occ=0.000000D+00  E= 3.947985D-01  Symmetry=a'

 Vector   51  Occ=0.000000D+00  E= 4.204618D-01  Symmetry=a'

 Vector   52  Occ=0.000000D+00  E= 4.243072D-01  Symmetry=a'

 Vector   53  Occ=0.000000D+00  E= 4.384546D-01  Symmetry=a'

 Vector   54  Occ=0.000000D+00  E= 4.555798D-01  Symmetry=a"

 Vector   55  Occ=0.000000D+00  E= 4.616991D-01  Symmetry=a"

 Vector   56  Occ=0.000000D+00  E= 4.688364D-01  Symmetry=a'

 Vector   57  Occ=0.000000D+00  E= 5.079967D-01  Symmetry=a'

          Total MP2 energy          -266.465455056399
         Total SCF energy =   -265.665502321553
          Total MP2 energy          -266.465455056399
@    8    -266.46545506 -2.8D-09  0.00001  0.00000  0.00005  0.00013    592.3
         Total SCF energy =   -265.665499810778

 Vector    6  Occ=2.000000D+00  E=-1.447725D+00  Symmetry=a'

 Vector    7  Occ=2.000000D+00  E=-1.376162D+00  Symmetry=a'

 Vector    8  Occ=2.000000D+00  E=-1.082738D+00  Symmetry=a'

 Vector    9  Occ=2.000000D+00  E=-8.967445D-01  Symmetry=a'

 Vector   10  Occ=2.000000D+00  E=-8.183064D-01  Symmetry=a'

 Vector   11  Occ=2.000000D+00  E=-7.355458D-01  Symmetry=a'

 Vector   12  Occ=2.000000D+00  E=-6.916268D-01  Symmetry=a'

 Vector   13  Occ=2.000000D+00  E=-6.280873D-01  Symmetry=a'

 Vector   14  Occ=2.000000D+00  E=-6.159855D-01  Symmetry=a"

 Vector   15  Occ=2.000000D+00  E=-6.063832D-01  Symmetry=a'

 Vector   16  Occ=2.000000D+00  E=-5.709045D-01  Symmetry=a'

 Vector   17  Occ=2.000000D+00  E=-5.299816D-01  Symmetry=a"

 Vector   18  Occ=2.000000D+00  E=-4.273005D-01  Symmetry=a'

 Vector   19  Occ=2.000000D+00  E=-3.751445D-01  Symmetry=a"

 Vector   20  Occ=0.000000D+00  E= 2.702822D-02  Symmetry=a'

 Vector   21  Occ=0.000000D+00  E= 3.687070D-02  Symmetry=a'

 Vector   22  Occ=0.000000D+00  E= 5.311170D-02  Symmetry=a'

 Vector   23  Occ=0.000000D+00  E= 6.653824D-02  Symmetry=a'

 Vector   24  Occ=0.000000D+00  E= 8.572100D-02  Symmetry=a"

 Vector   25  Occ=0.000000D+00  E= 9.314868D-02  Symmetry=a"

 Vector   26  Occ=0.000000D+00  E= 1.084394D-01  Symmetry=a'

 Vector   27  Occ=0.000000D+00  E= 1.191361D-01  Symmetry=a'

 Vector   28  Occ=0.000000D+00  E= 1.223732D-01  Symmetry=a"

 Vector   29  Occ=0.000000D+00  E= 1.308620D-01  Symmetry=a'

 Vector   30  Occ=0.000000D+00  E= 1.422267D-01  Symmetry=a"

 Vector   31  Occ=0.000000D+00  E= 1.466739D-01  Symmetry=a'

 Vector   32  Occ=0.000000D+00  E= 1.554595D-01  Symmetry=a'

 Vector   33  Occ=0.000000D+00  E= 1.672134D-01  Symmetry=a'

 Vector   34  Occ=0.000000D+00  E= 1.729551D-01  Symmetry=a'

 Vector   35  Occ=0.000000D+00  E= 2.064635D-01  Symmetry=a'

 Vector   36  Occ=0.000000D+00  E= 2.225164D-01  Symmetry=a"

 Vector   37  Occ=0.000000D+00  E= 2.349724D-01  Symmetry=a'

 Vector   38  Occ=0.000000D+00  E= 2.548915D-01  Symmetry=a"

 Vector   39  Occ=0.000000D+00  E= 2.559915D-01  Symmetry=a'

 Vector   40  Occ=0.000000D+00  E= 2.661628D-01  Symmetry=a'

 Vector   41  Occ=0.000000D+00  E= 2.901493D-01  Symmetry=a'

 Vector   42  Occ=0.000000D+00  E= 3.072534D-01  Symmetry=a'

 Vector   43  Occ=0.000000D+00  E= 3.075511D-01  Symmetry=a"

 Vector   44  Occ=0.000000D+00  E= 3.116489D-01  Symmetry=a'

 Vector   45  Occ=0.000000D+00  E= 3.191054D-01  Symmetry=a'

 Vector   46  Occ=0.000000D+00  E= 3.537646D-01  Symmetry=a'

 Vector   47  Occ=0.000000D+00  E= 3.726745D-01  Symmetry=a'

 Vector   48  Occ=0.000000D+00  E= 3.763621D-01  Symmetry=a"

 Vector   49  Occ=0.000000D+00  E= 3.934680D-01  Symmetry=a"

 Vector   50  Occ=0.000000D+00  E= 3.947963D-01  Symmetry=a'

 Vector   51  Occ=0.000000D+00  E= 4.204617D-01  Symmetry=a'

 Vector   52  Occ=0.000000D+00  E= 4.243045D-01  Symmetry=a'

 Vector   53  Occ=0.000000D+00  E= 4.384539D-01  Symmetry=a'

 Vector   54  Occ=0.000000D+00  E= 4.555781D-01  Symmetry=a"

 Vector   55  Occ=0.000000D+00  E= 4.616969D-01  Symmetry=a"

 Vector   56  Occ=0.000000D+00  E= 4.688332D-01  Symmetry=a'

 Vector   57  Occ=0.000000D+00  E= 5.079965D-01  Symmetry=a'

       Multipole analysis of the density wrt the origin
       ------------------------------------------------

     L   x y z        total         open         nuclear
     -   - - -        -----         ----         -------
     0   0 0 0     -0.000000      0.000000     38.000000

     1   1 0 0     -0.099110      0.000000      0.123183
     1   0 1 0      1.479679      0.000000     -0.776309
     1   0 0 1      0.000000      0.000000      0.000000

     2   2 0 0    -17.661998      0.000000     36.826957
     2   1 1 0      3.822008      0.000000      5.007618
     2   1 0 1      0.000000      0.000000      0.000000
     2   0 2 0    -31.176564      0.000000    423.417766
     2   0 1 1     -0.000000      0.000000      0.000000

          Total MP2 energy          -266.465455056686
         Total SCF energy =   -265.665499810778
          Total MP2 energy          -266.465455056686
@    9    -266.46545506 -2.9D-10  0.00001  0.00000  0.00001  0.00004    644.6
@    9    -266.46545506 -2.9D-10  0.00001  0.00000  0.00001  0.00004    644.6

 Output coordinates in angstroms (scale by  1.889725989 to convert to a.u.)

  No.       Tag          Charge          X              Y              Z
 ---- ---------------- ---------- -------------- -------------- --------------
    1 O                    8.0000     0.12012806     2.36163356     0.00000000
    2 C                    6.0000    -0.36218064     1.09265892     0.00000000
    3 C                    6.0000     0.35990943    -0.05905914     0.00000000
    4 H                    1.0000     1.09029106     2.33257401     0.00000000
    5 H                    1.0000    -1.45606126     1.08512613     0.00000000
    6 C                    6.0000    -0.35088601    -1.34090434     0.00000000
    7 H                    1.0000     1.45488057    -0.06684708     0.00000000
    8 O                    8.0000     0.19998013    -2.44322158     0.00000000
    9 H                    1.0000    -1.46584694    -1.26512665     0.00000000

         Total SCF energy =   -265.665499810778
          Total MP2 energy          -266.465455056686
         Total SCF energy =   -265.665520207734
          Total MP2 energy          -266.465454743667
         Total SCF energy =   -265.665478758152
          Total MP2 energy          -266.465454735409
         Total SCF energy =   -265.665472209088
          Total MP2 energy          -266.465454848757
         Total SCF energy =   -265.665526974594
          Total MP2 energy          -266.465454851625
         Total SCF energy =   -265.665499778803
          Total MP2 energy          -266.465455038916
         Total SCF energy =   -265.665499778803
          Total MP2 energy          -266.465455038916
         Total SCF energy =   -265.665510727525
          Total MP2 energy          -266.465454677241
         Total SCF energy =   -265.665488081845
          Total MP2 energy          -266.465454672616
         Total SCF energy =   -265.665495660530
          Total MP2 energy          -266.465454674005
         Total SCF energy =   -265.665503195104
          Total MP2 energy          -266.465454674957
         Total SCF energy =   -265.665499713672
          Total MP2 energy          -266.465454988107
         Total SCF energy =   -265.665499713672
          Total MP2 energy          -266.465454988107
         Total SCF energy =   -265.665491246424
          Total MP2 energy          -266.465454682154
         Total SCF energy =   -265.665507587229
          Total MP2 energy          -266.465454684328
         Total SCF energy =   -265.665520778083
          Total MP2 energy          -266.465454696545
         Total SCF energy =   -265.665478086417
          Total MP2 energy          -266.465454693430
         Total SCF energy =   -265.665499746000
          Total MP2 energy          -266.465455010234
         Total SCF energy =   -265.665499746001
          Total MP2 energy          -266.465455010235
         Total SCF energy =   -265.665473445246
          Total MP2 energy          -266.465454795158
         Total SCF energy =   -265.665525658647
          Total MP2 energy          -266.465454805814
         Total SCF energy =   -265.665503456973
          Total MP2 energy          -266.465455028713
         Total SCF energy =   -265.665496088032
          Total MP2 energy          -266.465455029618
         Total SCF energy =   -265.665499799631
          Total MP2 energy          -266.465455052342
         Total SCF energy =   -265.665499799631
          Total MP2 energy          -266.465455052343
         Total SCF energy =   -265.665509879118
          Total MP2 energy          -266.465454872101
         Total SCF energy =   -265.665489371022
          Total MP2 energy          -266.465454872450
         Total SCF energy =   -265.665499779858
          Total MP2 energy          -266.465455024234
         Total SCF energy =   -265.665499764776
          Total MP2 energy          -266.465455024229
         Total SCF energy =   -265.665499792913
          Total MP2 energy          -266.465455043760
         Total SCF energy =   -265.665499792913
          Total MP2 energy          -266.465455043760
         Total SCF energy =   -265.665518191819
          Total MP2 energy          -266.465454723890
         Total SCF energy =   -265.665480706823
          Total MP2 energy          -266.465454722016
         Total SCF energy =   -265.665450356531
          Total MP2 energy          -266.465454652729
         Total SCF energy =   -265.665548421718
          Total MP2 energy          -266.465454651931
         Total SCF energy =   -265.665499688106
          Total MP2 energy          -266.465454967863
         Total SCF energy =   -265.665499688106
          Total MP2 energy          -266.465454967863
         Total SCF energy =   -265.665489782857
          Total MP2 energy          -266.465454874206
         Total SCF energy =   -265.665509473641
          Total MP2 energy          -266.465454874843
         Total SCF energy =   -265.665499801741
          Total MP2 energy          -266.465455031149
         Total SCF energy =   -265.665499757627
          Total MP2 energy          -266.465455031846
         Total SCF energy =   -265.665499796063
          Total MP2 energy          -266.465455045849
         Total SCF energy =   -265.665499796064
          Total MP2 energy          -266.465455045850
         Total SCF energy =   -265.665470441653
          Total MP2 energy          -266.465454951197
         Total SCF energy =   -265.665528942534
          Total MP2 energy          -266.465454952393
         Total SCF energy =   -265.665557859926
          Total MP2 energy          -266.465454747048
         Total SCF energy =   -265.665441131279
          Total MP2 energy          -266.465454745336
         Total SCF energy =   -265.665499783240
          Total MP2 energy          -266.465455045006
         Total SCF energy =   -265.665499783240
          Total MP2 energy          -266.465455045006
         Total SCF energy =   -265.665511982071
          Total MP2 energy          -266.465454902611
         Total SCF energy =   -265.665487324520
          Total MP2 energy          -266.465454902334
         Total SCF energy =   -265.665496529218
          Total MP2 energy          -266.465455022581
         Total SCF energy =   -265.665503012394
          Total MP2 energy          -266.465455022799
         Total SCF energy =   -265.665499794697
          Total MP2 energy          -266.465455045485
         Total SCF energy =   -265.665499794697
          Total MP2 energy          -266.465455045485
 Zero-Point correction to Energy  =   41.859 kcal/mol  (  0.066706 au)
 Thermal correction to Energy     =   45.156 kcal/mol  (  0.071961 au)
 Thermal correction to Enthalpy   =   45.748 kcal/mol  (  0.072905 au)
 Total Entropy                    =   72.089 cal/mol-K
   - Translational                =   38.722 cal/mol-K (mol. weight =  72.0211)
   - Rotational                   =   24.994 cal/mol-K (symmetry #  =        1)
   - Vibrational                  =    8.372 cal/mol-K
   - Translational                  =    2.979 cal/mol-K
   - Rotational                     =    2.979 cal/mol-K
   - Vibrational                    =   11.392 cal/mol-K
 P.Frequency       -0.00       -0.00       -0.00       -0.00       -0.00        0.00
 P.Frequency      145.25      217.37      327.66      487.21      529.23      562.43
 P.Frequency      828.57      972.32     1007.76     1130.86     1168.33     1223.87
 P.Frequency     1328.01     1368.40     1423.94     1682.53     1712.54     2949.59
 P.Frequency     3218.03     3235.88     3774.83

 Normal Eigenvalue ||           Projected Infra Red Intensities
  Mode   [cm**-1]  || [atomic units] [(debye/angs)**2] [(KM/mol)] [arbitrary]
 ------ ---------- || -------------- ----------------- ---------- -----------
    1       -0.000 ||    0.001042           0.024         1.016       0.203
    2       -0.000 ||    0.000017           0.000         0.016       0.003
    3       -0.000 ||    0.000594           0.014         0.579       0.116
    4       -0.000 ||    0.001363           0.031         1.329       0.265
    5       -0.000 ||    0.000135           0.003         0.131       0.026
    6        0.000 ||    0.000885           0.020         0.863       0.172
    7      145.253 ||    0.005577           0.129         5.437       1.084
    8      217.373 ||    0.020793           0.480        20.271       4.042
    9      327.660 ||    0.022459           0.518        21.894       4.366
   10      487.208 ||    0.001020           0.024         0.994       0.198
   11      529.232 ||    0.070837           1.634        69.056      13.770
   12      562.426 ||    0.002581           0.060         2.516       0.502
   13      828.568 ||    0.016796           0.387        16.374       3.265
   14      972.320 ||    0.039535           0.912        38.540       7.685
   15     1007.760 ||    0.022663           0.523        22.093       4.406
   16     1130.861 ||    0.306293           7.066       298.590      59.541
   17     1168.330 ||    0.058785           1.356        57.307      11.427
   18     1223.874 ||    0.040850           0.942        39.823       7.941
   19     1328.015 ||    0.009946           0.229         9.696       1.933
   20     1368.402 ||    0.006512           0.150         6.348       1.266
   21     1423.938 ||    0.005407           0.125         5.271       1.051
   22     1682.526 ||    0.082910           1.913        80.825      16.117
   23     1712.540 ||    0.492008          11.351       479.634      95.642
   24     2949.592 ||    0.090135           2.079        87.868      17.522
   25     3218.027 ||    0.004186           0.097         4.080       0.814
   26     3235.876 ||    0.004057           0.094         3.955       0.789
   27     3774.830 ||    0.081562           1.882        79.510      15.855
 ----------------------------------------------------------------------------

 Total times  cpu:     3412.5s     wall:     3466.2s
