============================== echo of input deck ==============================
echo
start 8tR2
title "H,CHO,H Reference 2"
charge 0

geometry
 zmatrix
  O
  C  1  R1
  C  2  R2  1  A1
  H  1  R5  2  A4  3  D180
  H  2  R6  3  A5  4  D180
  C  3  R7  2  A6  1  D180
  H  3  R8  2  A7  1  D0
  O  6  R9  3  A8  2  D180
  H  6  R10 3  A9  2  D0
  variables
    R1  1.329
    R2  1.363
    A1  124.5
    R5  0.994
    A4  105.4
    R6  1.085
    A5  122.5
    R7  1.478
    A6  120.0
    R8  1.099
    A7  117.6
    R9  1.250
    A8  120.0
    R10 1.000
    A9  120.0
  constants
    D0  0.000
    D180 180.0
 end
end

basis spherical
 * library aug-cc-pVDZ
end

set lindep:n_dep 0

set cphf:maxsub 95
set cphf:maxiter 999
set int:acc_std 1d-16
set fock:densityscreen f

scf
 maxiter 99
 vectors input atomic
 thresh 1d-9
 tol2e 1d-15
end

mp2
 freeze atomic
 tight
end

driver
 clear
 maxiter 99
 tight
end

set "mp2:aotol2e fock" 1d-15
set mp2:aotol2e 1d-15
set mp2:backtol 1d-15

task mp2 optimize
task mp2 frequencies

================================================================================

         Total SCF energy =   -265.648710466390
          Total MP2 energy          -266.448907179170
@ Step       Energy      Delta E   Gmax     Grms     Xrms     Xmax   Walltime
@ ---- ---------------- -------- -------- -------- -------- -------- --------
@    0    -266.44890718  0.0D+00  0.09587  0.02390  0.00000  0.00000     61.3
         Total SCF energy =   -265.660004622830
          Total MP2 energy          -266.461132169873
         Total SCF energy =   -265.661193519052
          Total MP2 energy          -266.461960600008
@    1    -266.46196060 -1.3D-02  0.01430  0.00463  0.07090  0.20297    140.2
         Total SCF energy =   -265.662249983681
          Total MP2 energy          -266.462640853143
         Total SCF energy =   -265.662653281190
          Total MP2 energy          -266.463122394322
@    2    -266.46312239 -1.2D-03  0.00272  0.00152  0.03599  0.09103    217.4
         Total SCF energy =   -265.663124134659
          Total MP2 energy          -266.463306059365
         Total SCF energy =   -265.663124134659
          Total MP2 energy          -266.463306059365
@    3    -266.46330606 -1.8D-04  0.00182  0.00069  0.02398  0.07193    273.1
         Total SCF energy =   -265.662978601754
          Total MP2 energy          -266.463324806933
         Total SCF energy =   -265.663008198060
          Total MP2 energy          -266.463325662850
@    4    -266.46332566 -2.0D-05  0.00038  0.00016  0.00372  0.01067    346.0
         Total SCF energy =   -265.663020971848
          Total MP2 energy          -266.463327172991
         Total SCF energy =   -265.663020971848
          Total MP2 energy          -266.463327172991
@    5    -266.46332717 -1.5D-06  0.00018  0.00007  0.00193  0.00536    401.6
         Total SCF energy =   -265.663027348809
          Total MP2 energy          -266.463327380980
         Total SCF energy =   -265.663026574501
          Total MP2 energy          -266.463327385392
@    6    -266.46332739 -2.1D-07  0.00009  0.00004  0.00060  0.00157    470.7
         Total SCF energy =   -265.663027631934
          Total MP2 energy          -266.463327426656
         Total SCF energy =   -265.663027631934
          Total MP2 energy          -266.463327426656
@    7    -266.46332743 -4.1D-08  0.00005  0.00002  0.00043  0.00119    523.5
         Total SCF energy =   -265.663030288054
          Total MP2 energy          -266.463327448092
         Total SCF energy =   -265.663030288054
          Total MP2 energy          -266.463327448092
@    8    -266.46332745 -2.1D-08  0.00002  0.00000  0.00012  0.00033    576.4
         Total SCF energy =   -265.663028310590

 Vector   30  Occ=0.000000D+00  E= 1.415819D-01  Symmetry=a"

 Vector   31  Occ=0.000000D+00  E= 1.543835D-01  Symmetry=a'

 Vector   32  Occ=0.000000D+00  E= 1.626779D-01  Symmetry=a'

 Vector   33  Occ=0.000000D+00  E= 1.728305D-01  Symmetry=a'

 Vector   34  Occ=0.000000D+00  E= 1.814835D-01  Symmetry=a'

 Vector   35  Occ=0.000000D+00  E= 2.000007D-01  Symmetry=a'

 Vector   36  Occ=0.000000D+00  E= 2.235884D-01  Symmetry=a"

 Vector   37  Occ=0.000000D+00  E= 2.306633D-01  Symmetry=a'

 Vector   38  Occ=0.000000D+00  E= 2.421072D-01  Symmetry=a'

 Vector   39  Occ=0.000000D+00  E= 2.566568D-01  Symmetry=a"

 Vector   40  Occ=0.000000D+00  E= 2.665722D-01  Symmetry=a'

 Vector   41  Occ=0.000000D+00  E= 2.918864D-01  Symmetry=a'

 Vector   42  Occ=0.000000D+00  E= 3.072364D-01  Symmetry=a"

 Vector   43  Occ=0.000000D+00  E= 3.077116D-01  Symmetry=a'

 Vector   44  Occ=0.000000D+00  E= 3.209724D-01  Symmetry=a'

 Vector   45  Occ=0.000000D+00  E= 3.293406D-01  Symmetry=a'

 Vector   46  Occ=0.000000D+00  E= 3.596116D-01  Symmetry=a'

 Vector   47  Occ=0.000000D+00  E= 3.683883D-01  Symmetry=a'

 Vector   48  Occ=0.000000D+00  E= 3.735643D-01  Symmetry=a"

 Vector   49  Occ=0.000000D+00  E= 3.928663D-01  Symmetry=a"

 Vector   50  Occ=0.000000D+00  E= 3.932587D-01  Symmetry=a'

 Vector   51  Occ=0.000000D+00  E= 4.166298D-01  Symmetry=a'

 Vector   52  Occ=0.000000D+00  E= 4.320424D-01  Symmetry=a'

 Vector   53  Occ=0.000000D+00  E= 4.480775D-01  Symmetry=a'

 Vector   54  Occ=0.000000D+00  E= 4.630770D-01  Symmetry=a"

 Vector   55  Occ=0.000000D+00  E= 4.701928D-01  Symmetry=a"

 Vector   56  Occ=0.000000D+00  E= 4.771819D-01  Symmetry=a'

 Vector   57  Occ=0.000000D+00  E= 5.019507D-01  Symmetry=a'

          Total MP2 energy          -266.463327448380
         Total SCF energy =   -265.663028310590
          Total MP2 energy          -266.463327448380
@    9    -266.46332745 -2.9D-10  0.00001  0.00000  0.00002  0.00008    627.6
         Total SCF energy =   -265.663029082487

 Vector    6  Occ=2.000000D+00  E=-1.444469D+00  Symmetry=a'

 Vector    7  Occ=2.000000D+00  E=-1.372796D+00  Symmetry=a'

 Vector    8  Occ=2.000000D+00  E=-1.082281D+00  Symmetry=a'

 Vector    9  Occ=2.000000D+00  E=-8.856837D-01  Symmetry=a'

 Vector   10  Occ=2.000000D+00  E=-8.005847D-01  Symmetry=a'

 Vector   11  Occ=2.000000D+00  E=-7.568078D-01  Symmetry=a'

 Vector   12  Occ=2.000000D+00  E=-6.889554D-01  Symmetry=a'

 Vector   13  Occ=2.000000D+00  E=-6.220040D-01  Symmetry=a'

 Vector   14  Occ=2.000000D+00  E=-6.132385D-01  Symmetry=a"

 Vector   15  Occ=2.000000D+00  E=-6.093543D-01  Symmetry=a'

 Vector   16  Occ=2.000000D+00  E=-5.578333D-01  Symmetry=a'

 Vector   17  Occ=2.000000D+00  E=-5.262788D-01  Symmetry=a"

 Vector   18  Occ=2.000000D+00  E=-4.243983D-01  Symmetry=a'

 Vector   19  Occ=2.000000D+00  E=-3.701044D-01  Symmetry=a"

 Vector   20  Occ=0.000000D+00  E= 1.849963D-02  Symmetry=a'

 Vector   21  Occ=0.000000D+00  E= 4.229289D-02  Symmetry=a'

 Vector   22  Occ=0.000000D+00  E= 5.068339D-02  Symmetry=a'

 Vector   23  Occ=0.000000D+00  E= 6.681935D-02  Symmetry=a'

 Vector   24  Occ=0.000000D+00  E= 8.254907D-02  Symmetry=a"

 Vector   25  Occ=0.000000D+00  E= 9.265421D-02  Symmetry=a"

 Vector   26  Occ=0.000000D+00  E= 1.122875D-01  Symmetry=a'

 Vector   27  Occ=0.000000D+00  E= 1.177180D-01  Symmetry=a'

 Vector   28  Occ=0.000000D+00  E= 1.278809D-01  Symmetry=a'

 Vector   29  Occ=0.000000D+00  E= 1.318549D-01  Symmetry=a"

 Vector   30  Occ=0.000000D+00  E= 1.415819D-01  Symmetry=a"

 Vector   31  Occ=0.000000D+00  E= 1.543836D-01  Symmetry=a'

 Vector   32  Occ=0.000000D+00  E= 1.626778D-01  Symmetry=a'

 Vector   33  Occ=0.000000D+00  E= 1.728305D-01  Symmetry=a'

 Vector   34  Occ=0.000000D+00  E= 1.814838D-01  Symmetry=a'

 Vector   35  Occ=0.000000D+00  E= 2.000007D-01  Symmetry=a'

 Vector   36  Occ=0.000000D+00  E= 2.235883D-01  Symmetry=a"

 Vector   37  Occ=0.000000D+00  E= 2.306637D-01  Symmetry=a'

 Vector   38  Occ=0.000000D+00  E= 2.421079D-01  Symmetry=a'

 Vector   39  Occ=0.000000D+00  E= 2.566569D-01  Symmetry=a"

 Vector   40  Occ=0.000000D+00  E= 2.665725D-01  Symmetry=a'

 Vector   41  Occ=0.000000D+00  E= 2.918862D-01  Symmetry=a'

 Vector   42  Occ=0.000000D+00  E= 3.072366D-01  Symmetry=a"

 Vector   43  Occ=0.000000D+00  E= 3.077118D-01  Symmetry=a'

 Vector   44  Occ=0.000000D+00  E= 3.209732D-01  Symmetry=a'

 Vector   45  Occ=0.000000D+00  E= 3.293406D-01  Symmetry=a'

 Vector   46  Occ=0.000000D+00  E= 3.596118D-01  Symmetry=a'

 Vector   47  Occ=0.000000D+00  E= 3.683886D-01  Symmetry=a'

 Vector   48  Occ=0.000000D+00  E= 3.735639D-01  Symmetry=a"

 Vector   49  Occ=0.000000D+00  E= 3.928665D-01  Symmetry=a"

 Vector   50  Occ=0.000000D+00  E= 3.932584D-01  Symmetry=a'

 Vector   51  Occ=0.000000D+00  E= 4.166307D-01  Symmetry=a'

 Vector   52  Occ=0.000000D+00  E= 4.320427D-01  Symmetry=a'

 Vector   53  Occ=0.000000D+00  E= 4.480787D-01  Symmetry=a'

 Vector   54  Occ=0.000000D+00  E= 4.630777D-01  Symmetry=a"

 Vector   55  Occ=0.000000D+00  E= 4.701939D-01  Symmetry=a"

 Vector   56  Occ=0.000000D+00  E= 4.771839D-01  Symmetry=a'

 Vector   57  Occ=0.000000D+00  E= 5.019509D-01  Symmetry=a'

       Multipole analysis of the density wrt the origin
       ------------------------------------------------

     L   x y z        total         open         nuclear
     -   - - -        -----         ----         -------
     0   0 0 0     -0.000000      0.000000     38.000000

     1   1 0 0     -1.188344      0.000000      0.168969
     1   0 1 0      1.951096      0.000000     -0.007738
     1   0 0 1      0.000000      0.000000      0.000000

     2   2 0 0    -19.515854      0.000000     34.423274
     2   1 1 0     -2.142263      0.000000     -4.729254
     2   1 0 1     -0.000000      0.000000      0.000000
     2   0 2 0    -25.826472      0.000000    429.342693
     2   0 1 1     -0.000000      0.000000      0.000000

          Total MP2 energy          -266.463327448460
         Total SCF energy =   -265.663029082487
          Total MP2 energy          -266.463327448460
@   10    -266.46332745 -8.0D-11  0.00000  0.00000  0.00001  0.00004    678.9
@   10    -266.46332745 -8.0D-11  0.00000  0.00000  0.00001  0.00004    678.9

 Output coordinates in angstroms (scale by  1.889725989 to convert to a.u.)

  No.       Tag          Charge          X              Y              Z
 ---- ---------------- ---------- -------------- -------------- --------------
    1 O                    8.0000     0.22706226     2.32063718     0.00000000
    2 C                    6.0000    -0.35180610     1.08757859     0.00000000
    3 C                    6.0000     0.38399389    -0.05233880     0.00000000
    4 H                    1.0000    -0.46152854     2.99937905     0.00000000
    5 H                    1.0000    -1.44797900     1.05424132     0.00000000
    6 C                    6.0000    -0.31947909    -1.33732978     0.00000000
    7 H                    1.0000     1.47678391    -0.03160551     0.00000000
    8 O                    8.0000     0.23316337    -2.43891168     0.00000000
    9 H                    1.0000    -1.43591911    -1.26737392     0.00000000

         Total SCF energy =   -265.663029082487
          Total MP2 energy          -266.463327448460
         Total SCF energy =   -265.662996072621
          Total MP2 energy          -266.463327230366
         Total SCF energy =   -265.663061613425
          Total MP2 energy          -266.463327225946
         Total SCF energy =   -265.663025533390
          Total MP2 energy          -266.463327138167
         Total SCF energy =   -265.663032004877
          Total MP2 energy          -266.463327140093
         Total SCF energy =   -265.663029058060
          Total MP2 energy          -266.463327438373
         Total SCF energy =   -265.663029058060
          Total MP2 energy          -266.463327438373
         Total SCF energy =   -265.663048497686
          Total MP2 energy          -266.463327078977
         Total SCF energy =   -265.663008881858
          Total MP2 energy          -266.463327080187
         Total SCF energy =   -265.663019925173
          Total MP2 energy          -266.463327059733
         Total SCF energy =   -265.663037450993
          Total MP2 energy          -266.463327059963
         Total SCF energy =   -265.663028988697
          Total MP2 energy          -266.463327382834
         Total SCF energy =   -265.663028988697
          Total MP2 energy          -266.463327382834
         Total SCF energy =   -265.663018809774
          Total MP2 energy          -266.463327067915
         Total SCF energy =   -265.663038551650
          Total MP2 energy          -266.463327068507
         Total SCF energy =   -265.663050697122
          Total MP2 energy          -266.463327083638
         Total SCF energy =   -265.663006704208
          Total MP2 energy          -266.463327086579
         Total SCF energy =   -265.663029015537
          Total MP2 energy          -266.463327400466
         Total SCF energy =   -265.663029015537
          Total MP2 energy          -266.463327400466
         Total SCF energy =   -265.663049311907
          Total MP2 energy          -266.463327303324
         Total SCF energy =   -265.663008553773
          Total MP2 energy          -266.463327307075
         Total SCF energy =   -265.663012592153
          Total MP2 energy          -266.463327303232
         Total SCF energy =   -265.663045263925
          Total MP2 energy          -266.463327298025
         Total SCF energy =   -265.663029073133
          Total MP2 energy          -266.463327445616
         Total SCF energy =   -265.663029073133
          Total MP2 energy          -266.463327445616
         Total SCF energy =   -265.663039584094
          Total MP2 energy          -266.463327268730
         Total SCF energy =   -265.663018218532
          Total MP2 energy          -266.463327268805
         Total SCF energy =   -265.663030647330
          Total MP2 energy          -266.463327415480
         Total SCF energy =   -265.663027439665
          Total MP2 energy          -266.463327415931
         Total SCF energy =   -265.663029065993
          Total MP2 energy          -266.463327436860
         Total SCF energy =   -265.663029065993
          Total MP2 energy          -266.463327436861
         Total SCF energy =   -265.663047635075
          Total MP2 energy          -266.463327117910
         Total SCF energy =   -265.663009811287
          Total MP2 energy          -266.463327115889
         Total SCF energy =   -265.662978534704
          Total MP2 energy          -266.463327043575
         Total SCF energy =   -265.663078782961
          Total MP2 energy          -266.463327042554
         Total SCF energy =   -265.663028959576
          Total MP2 energy          -266.463327359265
         Total SCF energy =   -265.663028959576
          Total MP2 energy          -266.463327359265
         Total SCF energy =   -265.663018855087
          Total MP2 energy          -266.463327263353
         Total SCF energy =   -265.663038938312
          Total MP2 energy          -266.463327263182
         Total SCF energy =   -265.663028692700
          Total MP2 energy          -266.463327424170
         Total SCF energy =   -265.663029411891
          Total MP2 energy          -266.463327424065
         Total SCF energy =   -265.663029066975
          Total MP2 energy          -266.463327437020
         Total SCF energy =   -265.663029066975
          Total MP2 energy          -266.463327437021
         Total SCF energy =   -265.662999375443
          Total MP2 energy          -266.463327342986
         Total SCF energy =   -265.663058550957
          Total MP2 energy          -266.463327343195
         Total SCF energy =   -265.663087214339
          Total MP2 energy          -266.463327138697
         Total SCF energy =   -265.662970322009
          Total MP2 energy          -266.463327139611
         Total SCF energy =   -265.663029054992
          Total MP2 energy          -266.463327436813
         Total SCF energy =   -265.663029054992
          Total MP2 energy          -266.463327436813
         Total SCF energy =   -265.663041415299
          Total MP2 energy          -266.463327295112
         Total SCF energy =   -265.663016437127
          Total MP2 energy          -266.463327295840
         Total SCF energy =   -265.663025814226
          Total MP2 energy          -266.463327414434
         Total SCF energy =   -265.663032270630
          Total MP2 energy          -266.463327414364
         Total SCF energy =   -265.663029066415
          Total MP2 energy          -266.463327437223
         Total SCF energy =   -265.663029066415
          Total MP2 energy          -266.463327437223
 Zero-Point correction to Energy  =   41.687 kcal/mol  (  0.066432 au)
 Thermal correction to Energy     =   45.046 kcal/mol  (  0.071785 au)
 Thermal correction to Enthalpy   =   45.638 kcal/mol  (  0.072728 au)
 Total Entropy                    =   72.391 cal/mol-K
   - Translational                =   38.722 cal/mol-K (mol. weight =  72.0211)
   - Rotational                   =   24.961 cal/mol-K (symmetry #  =        1)
   - Vibrational                  =    8.708 cal/mol-K
   - Translational                  =    2.979 cal/mol-K
   - Rotational                     =    2.979 cal/mol-K
   - Vibrational                    =   11.682 cal/mol-K
 P.Frequency       -0.00       -0.00       -0.00       -0.00       -0.00        0.00
 P.Frequency      145.60      219.32      319.34      421.89      488.64      555.57
 P.Frequency      836.32      951.56     1002.72     1151.19     1162.51     1202.36
 P.Frequency     1326.44     1346.68     1419.87     1696.40     1721.68     2936.42
 P.Frequency     3195.00     3245.69     3829.15

 Normal Eigenvalue ||           Projected Infra Red Intensities
  Mode   [cm**-1]  || [atomic units] [(debye/angs)**2] [(KM/mol)] [arbitrary]
 ------ ---------- || -------------- ----------------- ---------- -----------
    1       -0.000 ||    0.001213           0.028         1.182       0.224
    2       -0.000 ||    0.003324           0.077         3.241       0.613
    3       -0.000 ||    0.012459           0.287        12.145       2.298
    4       -0.000 ||    0.012272           0.283        11.963       2.264
    5       -0.000 ||    0.000128           0.003         0.125       0.024
    6        0.000 ||    0.000184           0.004         0.180       0.034
    7      145.598 ||    0.000526           0.012         0.512       0.097
    8      219.323 ||    0.004626           0.107         4.510       0.853
    9      319.340 ||    0.022915           0.529        22.339       4.228
   10      421.889 ||    0.092622           2.137        90.293      17.088
   11      488.643 ||    0.012857           0.297        12.534       2.372
   12      555.573 ||    0.029271           0.675        28.535       5.400
   13      836.319 ||    0.004061           0.094         3.959       0.749
   14      951.563 ||    0.045124           1.041        43.989       8.325
   15     1002.722 ||    0.003941           0.091         3.842       0.727
   16     1151.185 ||    0.050197           1.158        48.934       9.261
   17     1162.507 ||    0.074450           1.718        72.578      13.735
   18     1202.365 ||    0.155229           3.581       151.325      28.638
   19     1326.440 ||    0.133673           3.084       130.312      24.661
   20     1346.681 ||    0.046479           1.072        45.310       8.575
   21     1419.866 ||    0.002788           0.064         2.718       0.514
   22     1696.403 ||    0.017595           0.406        17.153       3.246
   23     1721.683 ||    0.475592          10.972       463.631      87.741
   24     2936.416 ||    0.097345           2.246        94.897      17.959
   25     3195.000 ||    0.008470           0.195         8.257       1.563
   26     3245.687 ||    0.001354           0.031         1.320       0.250
   27     3829.150 ||    0.154815           3.572       150.922      28.562
 ----------------------------------------------------------------------------

 Total times  cpu:     3430.5s     wall:     3488.9s
