 Gaussian 16, Revision A.03,
 Gaussian 16:  ES64L-G16RevA.03 25-Dec-2016

 ----------------------------------------------
 # MP2/aug-cc-pVDZ opt freq=(vibrot,anharmonic)
 ----------------------------------------------

 ----
 bleh
 ----
 Symbolic Z-matrix:
 Charge =  0 Multiplicity = 1

 SCF Done:  E(RHF) =  -168.928003667     A.U. after   13 cycles
 E2 =    -0.5208440899D+00 EUMP2 =    -0.16944884775729D+03
 SCF Done:  E(RHF) =  -168.926482775     A.U. after   13 cycles
 E2 =    -0.5243527657D+00 EUMP2 =    -0.16945083554088D+03
 SCF Done:  E(RHF) =  -168.918940967     A.U. after   14 cycles
 E2 =    -0.5285090876D+00 EUMP2 =    -0.16944745005440D+03
 SCF Done:  E(RHF) =  -168.926374211     A.U. after   12 cycles
 E2 =    -0.5249533945D+00 EUMP2 =    -0.16945132760564D+03
 SCF Done:  E(RHF) =  -168.926892439     A.U. after   11 cycles
 E2 =    -0.5245061457D+00 EUMP2 =    -0.16945139858481D+03
 SCF Done:  E(RHF) =  -168.927527557     A.U. after   11 cycles
 E2 =    -0.5239312180D+00 EUMP2 =    -0.16945145877468D+03
 SCF Done:  E(RHF) =  -168.927707874     A.U. after   11 cycles
 E2 =    -0.5237692387D+00 EUMP2 =    -0.16945147711245D+03
 SCF Done:  E(RHF) =  -168.927751644     A.U. after   12 cycles
 E2 =    -0.5237430307D+00 EUMP2 =    -0.16945149467507D+03
 SCF Done:  E(RHF) =  -168.927721679     A.U. after   12 cycles
 E2 =    -0.5237855406D+00 EUMP2 =    -0.16945150721999D+03
 SCF Done:  E(RHF) =  -168.927686902     A.U. after   12 cycles
 E2 =    -0.5238401421D+00 EUMP2 =    -0.16945152704389D+03
 E2 =    -0.5239683709D+00 EUMP2 =    -0.16945154223708D+03
 E2 =    -0.5240865372D+00 EUMP2 =    -0.16945156636933D+03
 E2 =    -0.5240688668D+00 EUMP2 =    -0.16945159077284D+03
 E2 =    -0.5238525814D+00 EUMP2 =    -0.16945159492603D+03
 E2 =    -0.5238128161D+00 EUMP2 =    -0.16945159502550D+03
 Optimization completed.
    -- Stationary point found.
 Normal termination of Gaussian 16 at Fri Dec 17 10:55:12 2021.

 ----------------------------------------------------------------------
 #N Geom=AllCheck Guess=TCheck SCRF=Check GenChk RMP2(FC)/Aug-CC-pVDZ F
 req
 ----------------------------------------------------------------------

 Structure from the checkpoint file:  "/gscratch/scrubbed/gds001/Gau-7396.chk"
 ----
 bleh
 ----
 Charge =  0 Multiplicity = 1

                         Standard orientation:
 ---------------------------------------------------------------------
 Center     Atomic      Atomic             Coordinates (Angstroms)
 Number     Number       Type             X           Y           Z
 ---------------------------------------------------------------------
      1          6           0       -2.035442   -0.046304    0.000004
      2          7           0       -0.866005    0.115669   -0.000008
      3          1           0       -3.103024   -0.194706    0.000012
      4          8           0        2.197161   -0.137167   -0.000000
      5          1           0        1.237274    0.004458    0.000012
      6          1           0        2.563148    0.755721    0.000013
 ---------------------------------------------------------------------

 E2 =    -0.5238128202D+00 EUMP2 =    -0.16945159502958D+03
 E2 =    -0.5238128202D+00 EUMP2 =    -0.16945159502958D+03
 E2 =    -0.5238122259D+00 EUMP2 =    -0.16945159501239D+03
 E2 =    -0.5238122259D+00 EUMP2 =    -0.16945159501239D+03
 E2 =    -0.5238157789D+00 EUMP2 =    -0.16945159500789D+03
 SCF Done:  E(RHF) =  -168.927658937     A.U. after    9 cycles
 E2 =    -0.5239177860D+00 EUMP2 =    -0.16945157672337D+03
 E2 =    -0.5239177860D+00 EUMP2 =    -0.16945157672337D+03
 SCF Done:  E(RHF) =  -168.927860121     A.U. after    9 cycles
 E2 =    -0.5237167668D+00 EUMP2 =    -0.16945157688751D+03
 E2 =    -0.5237167668D+00 EUMP2 =    -0.16945157688751D+03
 SCF Done:  E(RHF) =  -168.926870177     A.U. after    8 cycles
 E2 =    -0.5246977086D+00 EUMP2 =    -0.16945156788508D+03
 E2 =    -0.5246977086D+00 EUMP2 =    -0.16945156788508D+03
 SCF Done:  E(RHF) =  -168.928635250     A.U. after    8 cycles
 E2 =    -0.5229323931D+00 EUMP2 =    -0.16945156764269D+03
 E2 =    -0.5229323931D+00 EUMP2 =    -0.16945156764269D+03
 SCF Done:  E(RHF) =  -168.927826479     A.U. after    9 cycles
 E2 =    -0.5236892496D+00 EUMP2 =    -0.16945151572859D+03
 E2 =    -0.5236892496D+00 EUMP2 =    -0.16945151572859D+03
 SCF Done:  E(RHF) =  -168.927574644     A.U. after    9 cycles
 E2 =    -0.5239380855D+00 EUMP2 =    -0.16945151272998D+03
 E2 =    -0.5239380855D+00 EUMP2 =    -0.16945151272998D+03
 SCF Done:  E(RHF) =  -168.927035960     A.U. after    9 cycles
 E2 =    -0.5244655827D+00 EUMP2 =    -0.16945150154243D+03
 E2 =    -0.5244655827D+00 EUMP2 =    -0.16945150154243D+03
 SCF Done:  E(RHF) =  -168.928334523     A.U. after    9 cycles
 E2 =    -0.5231634751D+00 EUMP2 =    -0.16945149799808D+03
 E2 =    -0.5231634751D+00 EUMP2 =    -0.16945149799808D+03
 SCF Done:  E(RHF) =  -168.927497640     A.U. after    9 cycles
 E2 =    -0.5239955203D+00 EUMP2 =    -0.16945149316017D+03
 E2 =    -0.5239955203D+00 EUMP2 =    -0.16945149316017D+03
 SCF Done:  E(RHF) =  -168.927861114     A.U. after    9 cycles
 E2 =    -0.5236290102D+00 EUMP2 =    -0.16945149012424D+03
 E2 =    -0.5236290102D+00 EUMP2 =    -0.16945149012424D+03

 Alpha  occ. eigenvalues --  -20.54423 -15.63734 -11.33378  -1.32107  -1.24687
 Alpha  occ. eigenvalues --   -0.82947  -0.68889  -0.60841  -0.54966  -0.50728
 Alpha  occ. eigenvalues --   -0.50714  -0.47663
 Alpha virt. eigenvalues --    0.02328   0.05370   0.07286   0.07444   0.08160
 Alpha virt. eigenvalues --    0.11292   0.14307   0.14808   0.15136   0.20146
 Alpha virt. eigenvalues --    0.21426   0.22638   0.24953   0.25863   0.26155

 Mulliken charges:
               1
     1  C    0.149993
     2  N   -0.207886
     3  H    0.027707
     4  O   -0.261865
     5  H    0.206814
     6  H    0.085237
 Sum of Mulliken charges =  -0.00000

 Dipole moment (field-independent basis, Debye):
    X=             -4.5927    Y=              1.1875    Z=              0.0001  Tot=              4.7437
 Quadrupole moment (field-independent basis, Debye-Ang):
   XX=            -10.2953   YY=            -18.1422   ZZ=            -19.9044
   XY=              5.2555   XZ=              0.0000   YZ=              0.0000

  Exact polarizability:  35.751   1.552  22.399  -0.000  -0.000  21.991
 Approx polarizability:  31.552   1.914  19.933  -0.000   0.000  18.546

                      1                      2                      3
                      A                      A                      A
 Frequencies --     51.6759                64.2489               136.1310
 Red. masses --      3.6966                 2.0113                 7.3975
 Frc consts  --      0.0058                 0.0049                 0.0808
 IR Inten    --     23.9750                79.6420                 2.5677

                      4                      5                      6
                      A                      A                      A
 Frequencies --    276.8772               467.6717               709.6755
 Red. masses --      1.0622                 1.0505                 1.3303
 Frc consts  --      0.0480                 0.1354                 0.3947
 IR Inten    --     88.8194                88.4621                39.6570

                      7                      8                      9
                      A                      A                      A
 Frequencies --    710.4511              1642.2114              2008.6591
 Red. masses --      1.3317                 1.0789                 5.7421
 Frc consts  --      0.3960                 1.7144                13.6500
 IR Inten    --     36.2899                47.2185                 0.0046

                     10                     11                     12
                      A                      A                      A
 Frequencies --   3457.5751              3754.1682              3911.0629
 Red. masses --      1.1607                 1.0494                 1.0773
 Frc consts  --      8.1758                 8.7139                 9.7092
 IR Inten    --     89.6384               195.0493               143.4154

 - Thermochemistry -
 -------------------
 Temperature   298.150 Kelvin.  Pressure   1.00000 Atm.
 Atom     1 has atomic number  6 and mass  12.00000

 Molecular mass:    45.02146 amu.
 Principal axes and moments of inertia in atomic units:
                           1         2         3
     Eigenvalues --     3.85395 554.70217 558.55612
           X            0.99986   0.01643   0.00000
           Y           -0.01643   0.99986   0.00001
           Z           -0.00000  -0.00001   1.00000
 This molecule is an asymmetric top.
 Rotational symmetry number  1.
 Rotational temperatures (Kelvin)     22.47405     0.15614     0.15507
 Rotational constants (GHZ):         468.28314     3.25353     3.23108
 Zero-point vibrational energy     102821.5 (Joules/Mol)
                                   24.57492 (Kcal/Mol)
 Warning -- explicit consideration of   5 degrees of freedom as
           vibrations may cause significant error
 Vibrational temperatures:     74.35    92.44   195.86   398.36   672.88
          (Kelvin)           1021.06  1022.18  2362.78  2890.01  4974.68
                             5401.41  5627.15

 Zero-point correction=                           0.039163 (Hartree/Particle)
 Thermal correction to Energy=                    0.045219
 Thermal correction to Enthalpy=                  0.046163
 Thermal correction to Gibbs Free Energy=         0.011065
 Sum of electronic and zero-point Energies=           -169.412432
 Sum of electronic and thermal Energies=              -169.406376
 Sum of electronic and thermal Enthalpies=            -169.405432
 Sum of electronic and thermal Free Energies=         -169.440530

                     E (Thermal)             CV                S
                      KCal/Mol        Cal/Mol-Kelvin    Cal/Mol-Kelvin
 Total                   28.376             16.542             73.871
 Electronic               0.000              0.000              0.000
 Translational            0.889              2.981             37.339
 Rotational               0.889              2.981             21.706
 Vibrational             26.598             10.580             14.825
 Vibration     1          0.596              1.977              4.752
 Vibration     2          0.597              1.971              4.322
 Vibration     3          0.614              1.917              2.858
 Vibration     4          0.678              1.716              1.553
 Vibration     5          0.825              1.322              0.744

 ## DEPERTURBED TRANSITIONS MOMENTS ##

 Electric dipole : Fundamental Bands
 ------------------------------------------------------------------------

 ## AFTER VARIATIONAL CORRECTION

 Electric dipole : Fundamental Bands
 ------------------------------------------------------------------------

 Optimization completed.
    -- Stationary point found.
 Normal termination of Gaussian 16 at Fri Dec 17 11:06:20 2021.
