 Gaussian 16, Revision A.03,
 Gaussian 16:  ES64L-G16RevA.03 25-Dec-2016

 ----------------------------------------------
 # MP2/aug-cc-pVTZ opt freq=(vibrot,anharmonic)
 ----------------------------------------------

 ----
 bleh
 ----
 Symbolic Z-matrix:
 Charge =  0 Multiplicity = 1

 SCF Done:  E(RHF) =  -168.967042144     A.U. after   11 cycles
 E2 =    -0.6281252965D+00 EUMP2 =    -0.16959516744059D+03
 SCF Done:  E(RHF) =  -168.970911586     A.U. after   10 cycles
 E2 =    -0.6248253288D+00 EUMP2 =    -0.16959573691443D+03
 SCF Done:  E(RHF) =  -168.971006721     A.U. after   11 cycles
 E2 =    -0.6243784225D+00 EUMP2 =    -0.16959538514334D+03
 SCF Done:  E(RHF) =  -168.971403290     A.U. after    9 cycles
 E2 =    -0.6243424379D+00 EUMP2 =    -0.16959574572823D+03
 SCF Done:  E(RHF) =  -168.971313828     A.U. after    8 cycles
 E2 =    -0.6244331528D+00 EUMP2 =    -0.16959574698076D+03
 SCF Done:  E(RHF) =  -168.971262843     A.U. after    8 cycles
 E2 =    -0.6244848556D+00 EUMP2 =    -0.16959574769901D+03
 SCF Done:  E(RHF) =  -168.971230620     A.U. after    7 cycles
 E2 =    -0.6245175412D+00 EUMP2 =    -0.16959574816087D+03
 Optimization completed.
    -- Stationary point found.
 Normal termination of Gaussian 16 at Mon Dec 20 12:16:57 2021.

 ----------------------------------------------------------------------
 #N Geom=AllCheck Guess=TCheck SCRF=Check GenChk RMP2(FC)/Aug-CC-pVTZ F
 req
 ----------------------------------------------------------------------

 Structure from the checkpoint file:  "/gscratch/scrubbed/gds001/Gau-28471.chk"
 ----
 bleh
 ----
 Charge =  0 Multiplicity = 1

                         Standard orientation:
 ---------------------------------------------------------------------
 Center     Atomic      Atomic             Coordinates (Angstroms)
 Number     Number       Type             X           Y           Z
 ---------------------------------------------------------------------
      1          6           0       -2.018659   -0.039630   -0.000000
      2          7           0       -0.861952    0.101621    0.000001
      3          1           0       -3.076054   -0.170063   -0.000002
      4          8           0        2.181315   -0.132869   -0.000001
      5          1           0        1.224630    0.003990    0.000002
      6          1           0        2.546524    0.755452    0.000002
 ---------------------------------------------------------------------

 SCF Done:  E(RHF) =  -168.971230620     A.U. after    1 cycles
 E2 =    -0.6245175502D+00 EUMP2 =    -0.16959574816986D+03
 E2 =    -0.6245175502D+00 EUMP2 =    -0.16959574816985D+03
 SCF Done:  E(RHF) =  -168.971230699     A.U. after    7 cycles
 E2 =    -0.6245174221D+00 EUMP2 =    -0.16959574812071D+03
 E2 =    -0.6245174221D+00 EUMP2 =    -0.16959574812071D+03
 SCF Done:  E(RHF) =  -168.971228378     A.U. after    7 cycles
 E2 =    -0.6245197822D+00 EUMP2 =    -0.16959574816034D+03
 E2 =    -0.6245197822D+00 EUMP2 =    -0.16959574816034D+03
 E2 =    -0.6245188576D+00 EUMP2 =    -0.16959574814077D+03
 E2 =    -0.6245188576D+00 EUMP2 =    -0.16959574814077D+03
 E2 =    -0.6245188576D+00 EUMP2 =    -0.16959574814073D+03
 E2 =    -0.6245188576D+00 EUMP2 =    -0.16959574814073D+03
 E2 =    -0.6245052009D+00 EUMP2 =    -0.16959574798192D+03
 E2 =    -0.6245052009D+00 EUMP2 =    -0.16959574798192D+03
 E2 =    -0.6245300418D+00 EUMP2 =    -0.16959574808496D+03
 SCF Done:  E(RHF) =  -168.971101322     A.U. after    8 cycles
 E2 =    -0.6246286397D+00 EUMP2 =    -0.16959572996127D+03
 E2 =    -0.6246286397D+00 EUMP2 =    -0.16959572996127D+03
 SCF Done:  E(RHF) =  -168.971314536     A.U. after    8 cycles
 E2 =    -0.6244150841D+00 EUMP2 =    -0.16959572962039D+03
 E2 =    -0.6244150841D+00 EUMP2 =    -0.16959572962039D+03
 SCF Done:  E(RHF) =  -168.971987693     A.U. after    7 cycles
 E2 =    -0.6237330705D+00 EUMP2 =    -0.16959572076342D+03
 E2 =    -0.6237330705D+00 EUMP2 =    -0.16959572076342D+03
 SCF Done:  E(RHF) =  -168.970412074     A.U. after    7 cycles
 E2 =    -0.6253073644D+00 EUMP2 =    -0.16959571943816D+03
 E2 =    -0.6253073644D+00 EUMP2 =    -0.16959571943816D+03
 SCF Done:  E(RHF) =  -168.970981325     A.U. after    8 cycles
 E2 =    -0.6246833993D+00 EUMP2 =    -0.16959566472384D+03
 E2 =    -0.6246833993D+00 EUMP2 =    -0.16959566472384D+03
 SCF Done:  E(RHF) =  -168.971313380     A.U. after    8 cycles
 E2 =    -0.6243567098D+00 EUMP2 =    -0.16959567009019D+03
 E2 =    -0.6243567098D+00 EUMP2 =    -0.16959567009019D+03
 SCF Done:  E(RHF) =  -168.971725050     A.U. after    8 cycles
 E2 =    -0.6239242346D+00 EUMP2 =    -0.16959564928509D+03
 E2 =    -0.6239242346D+00 EUMP2 =    -0.16959564928509D+03
 SCF Done:  E(RHF) =  -168.970540999     A.U. after    8 cycles
 E2 =    -0.6251145118D+00 EUMP2 =    -0.16959565551030D+03
 E2 =    -0.6251145118D+00 EUMP2 =    -0.16959565551030D+03
 SCF Done:  E(RHF) =  -168.970943379     A.U. after    8 cycles
 E2 =    -0.6247029633D+00 EUMP2 =    -0.16959564634255D+03
 E2 =    -0.6247029633D+00 EUMP2 =    -0.16959564634255D+03
 SCF Done:  E(RHF) =  -168.971310703     A.U. after    8 cycles
 E2 =    -0.6243314481D+00 EUMP2 =    -0.16959564215123D+03
 E2 =    -0.6243314481D+00 EUMP2 =    -0.16959564215123D+03

 Alpha  occ. eigenvalues --  -20.53243 -15.62166 -11.31760  -1.31935  -1.25012
 Alpha  occ. eigenvalues --   -0.83207  -0.69025  -0.60841  -0.54837  -0.51227
 Alpha  occ. eigenvalues --   -0.51213  -0.47709
 Alpha virt. eigenvalues --    0.01833   0.04548   0.06158   0.06449   0.07051
 Alpha virt. eigenvalues --    0.09848   0.11999   0.12541   0.13382   0.16284
 Alpha virt. eigenvalues --    0.17175   0.17788   0.19809   0.20860   0.21495

 Mulliken charges:
               1
     1  C   -0.502139
     2  N   -0.250772
     3  H    0.753718
     4  O   -0.476353
     5  H    0.296351
     6  H    0.179195
 Sum of Mulliken charges =  -0.00000

 Dipole moment (field-independent basis, Debye):
    X=             -4.6026    Y=              1.2135    Z=              0.0000  Tot=              4.7598
 Quadrupole moment (field-independent basis, Debye-Ang):
   XX=            -10.0962   YY=            -17.8974   ZZ=            -19.6499
   XY=              5.0875   XZ=              0.0000   YZ=              0.0000

  Exact polarizability:  35.252   1.254  22.733   0.000   0.000  22.409
 Approx polarizability:  30.713   1.571  20.033   0.000   0.000  18.774

                      1                      2                      3
                      A                      A                      A
 Frequencies --     55.1603                58.5777               137.7733
 Red. masses --      3.6576                 2.1396                 7.3252
 Frc consts  --      0.0066                 0.0043                 0.0819
 IR Inten    --     24.2173                72.1446                 2.5461

                      4                      5                      6
                      A                      A                      A
 Frequencies --    289.9424               478.5490               724.9192
 Red. masses --      1.0640                 1.0520                 1.3348
 Frc consts  --      0.0527                 0.1419                 0.4133
 IR Inten    --     88.1649                88.2691                35.9046

                      7                      8                      9
                      A                      A                      A
 Frequencies --    725.6141              1648.8797              2037.7811
 Red. masses --      1.3361                 1.0792                 5.6891
 Frc consts  --      0.4145                 1.7287                13.9189
 IR Inten    --     33.6421                49.4274                 0.1375

                     10                     11                     12
                      A                      A                      A
 Frequencies --   3456.6013              3764.1135              3920.9989
 Red. masses --      1.1629                 1.0501                 1.0766
 Frc consts  --      8.1860                 8.7663                 9.7521
 IR Inten    --     94.1149               225.3836               143.1780

 - Thermochemistry -
 -------------------
 Temperature   298.150 Kelvin.  Pressure   1.00000 Atm.
 Atom     1 has atomic number  6 and mass  12.00000

 Molecular mass:    45.02146 amu.
 Principal axes and moments of inertia in atomic units:
                           1         2         3
     Eigenvalues --     3.58323 546.44726 550.03049
           X            0.99987   0.01606   0.00000
           Y           -0.01606   0.99987  -0.00001
           Z           -0.00000   0.00001   1.00000
 This molecule is an asymmetric top.
 Rotational symmetry number  1.
 Rotational temperatures (Kelvin)     24.17202     0.15850     0.15747
 Rotational constants (GHZ):         503.66307     3.30268     3.28117
 Zero-point vibrational energy     103470.5 (Joules/Mol)
                                   24.73003 (Kcal/Mol)
 Warning -- explicit consideration of   5 degrees of freedom as
           vibrations may cause significant error
 Vibrational temperatures:     79.36    84.28   198.23   417.16   688.53
          (Kelvin)           1043.00  1044.00  2372.37  2931.91  4973.28
                             5415.72  5641.44

 Zero-point correction=                           0.039410 (Hartree/Particle)
 Thermal correction to Energy=                    0.045431
 Thermal correction to Enthalpy=                  0.046375
 Thermal correction to Gibbs Free Energy=         0.011378
 Sum of electronic and zero-point Energies=           -169.556338
 Sum of electronic and thermal Energies=              -169.550318
 Sum of electronic and thermal Enthalpies=            -169.549373
 Sum of electronic and thermal Free Energies=         -169.584370

                     E (Thermal)             CV                S
                      KCal/Mol        Cal/Mol-Kelvin    Cal/Mol-Kelvin
 Total                   28.508             16.435             73.656
 Electronic               0.000              0.000              0.000
 Translational            0.889              2.981             37.339
 Rotational               0.889              2.981             21.604
 Vibrational             26.731             10.473             14.713
 Vibration     1          0.596              1.976              4.623
 Vibration     2          0.596              1.974              4.505
 Vibration     3          0.614              1.916              2.835
 Vibration     4          0.686              1.692              1.474
 Vibration     5          0.835              1.298              0.714

 ## DEPERTURBED TRANSITIONS MOMENTS ##

 Electric dipole : Fundamental Bands
 ------------------------------------------------------------------------

 ## AFTER VARIATIONAL CORRECTION

 Electric dipole : Fundamental Bands
 ------------------------------------------------------------------------

                           ! Non-Optimized Parameters !
 Normal termination of Gaussian 16 at Mon Dec 20 14:16:01 2021.
