 Gaussian 16, Revision A.03,
 Gaussian 16:  ES64L-G16RevA.03 25-Dec-2016

 ----------------------------------------------
 # MP2/aug-cc-pVTZ opt freq=(vibrot,anharmonic)
 ----------------------------------------------

 ----
 bleh
 ----
 Symbolic Z-matrix:
 Charge =  0 Multiplicity = 1

 SCF Done:  E(RHF) =  -230.190508880     A.U. after   11 cycles
 E2 =    -0.8858593448D+00 EUMP2 =    -0.23107636822521D+03
 SCF Done:  E(RHF) =  -230.192744796     A.U. after    9 cycles
 E2 =    -0.8843135212D+00 EUMP2 =    -0.23107705831768D+03
 SCF Done:  E(RHF) =  -230.192943923     A.U. after    8 cycles
 E2 =    -0.8841303532D+00 EUMP2 =    -0.23107707427592D+03
 SCF Done:  E(RHF) =  -230.193029705     A.U. after    7 cycles
 E2 =    -0.8840490528D+00 EUMP2 =    -0.23107707875835D+03
 SCF Done:  E(RHF) =  -230.193081057     A.U. after    7 cycles
 E2 =    -0.8839997446D+00 EUMP2 =    -0.23107708080171D+03
 SCF Done:  E(RHF) =  -230.193138123     A.U. after    8 cycles
 E2 =    -0.8839441279D+00 EUMP2 =    -0.23107708225085D+03
 SCF Done:  E(RHF) =  -230.193149054     A.U. after    8 cycles
 E2 =    -0.8839361222D+00 EUMP2 =    -0.23107708517621D+03
 SCF Done:  E(RHF) =  -230.193219637     A.U. after    9 cycles
 E2 =    -0.8838730462D+00 EUMP2 =    -0.23107709268365D+03
 SCF Done:  E(RHF) =  -230.193267066     A.U. after    9 cycles
 E2 =    -0.8838288458D+00 EUMP2 =    -0.23107709591222D+03
 SCF Done:  E(RHF) =  -230.193342757     A.U. after    9 cycles
 E2 =    -0.8837575386D+00 EUMP2 =    -0.23107710029573D+03
 E2 =    -0.8837363263D+00 EUMP2 =    -0.23107710142159D+03
 E2 =    -0.8837501566D+00 EUMP2 =    -0.23107710158020D+03
 E2 =    -0.8837608876D+00 EUMP2 =    -0.23107710165144D+03
 E2 =    -0.8837718348D+00 EUMP2 =    -0.23107710173919D+03
 E2 =    -0.8837743382D+00 EUMP2 =    -0.23107710180908D+03
 Optimization completed.
    -- Stationary point found.
 Normal termination of Gaussian 16 at Mon Dec 20 13:19:40 2021.

 ----------------------------------------------------------------------
 #N Geom=AllCheck Guess=TCheck SCRF=Check GenChk RMP2(FC)/Aug-CC-pVTZ F
 req
 ----------------------------------------------------------------------

 Structure from the checkpoint file:  "/gscratch/scrubbed/gds001/Gau-29509.chk"
 ----
 bleh
 ----
 Charge =  0 Multiplicity = 1

                         Standard orientation:
 ---------------------------------------------------------------------
 Center     Atomic      Atomic             Coordinates (Angstroms)
 Number     Number       Type             X           Y           Z
 ---------------------------------------------------------------------
      1          6           0       -0.964492   -1.168436    0.142349
      2          8           0       -0.494647   -0.000017   -0.513238
      3          1           0       -2.057160   -1.198100    0.136514
      4          1           0       -0.608609   -1.202378    1.175723
      5          1           0       -0.573982   -2.023093   -0.402111
      6          6           0       -0.963897    1.168667    0.142313
      7          1           0       -0.573493    2.023105   -0.402566
      8          1           0       -0.607461    1.202770    1.175490
      9          1           0       -2.056562    1.198573    0.137042
     10          8           0        2.227789   -0.000186    0.172582
     11          1           0        1.344284   -0.000238   -0.233749
     12          1           0        2.838178   -0.000405   -0.569073
 ---------------------------------------------------------------------

 E2 =    -0.8837743324D+00 EUMP2 =    -0.23107710180322D+03
 E2 =    -0.8837743324D+00 EUMP2 =    -0.23107710180322D+03
 E2 =    -0.8837745786D+00 EUMP2 =    -0.23107710178661D+03
 E2 =    -0.8837745786D+00 EUMP2 =    -0.23107710178661D+03
 E2 =    -0.8837747972D+00 EUMP2 =    -0.23107710179705D+03
 SCF Done:  E(RHF) =  -230.193261345     A.U. after    7 cycles
 E2 =    -0.8837748955D+00 EUMP2 =    -0.23107703624022D+03
 E2 =    -0.8837748955D+00 EUMP2 =    -0.23107703624022D+03
 SCF Done:  E(RHF) =  -230.193261370     A.U. after    7 cycles
 E2 =    -0.8837748546D+00 EUMP2 =    -0.23107703622446D+03
 E2 =    -0.8837748546D+00 EUMP2 =    -0.23107703622446D+03
 SCF Done:  E(RHF) =  -230.193258539     A.U. after    7 cycles
 E2 =    -0.8837746036D+00 EUMP2 =    -0.23107703314246D+03
 E2 =    -0.8837746036D+00 EUMP2 =    -0.23107703314246D+03
 SCF Done:  E(RHF) =  -230.193257967     A.U. after    7 cycles
 E2 =    -0.8837752003D+00 EUMP2 =    -0.23107703316697D+03
 E2 =    -0.8837752003D+00 EUMP2 =    -0.23107703316697D+03
 SCF Done:  E(RHF) =  -230.193205387     A.U. after    8 cycles
 E2 =    -0.8838285192D+00 EUMP2 =    -0.23107703390605D+03
 E2 =    -0.8838285192D+00 EUMP2 =    -0.23107703390605D+03
 SCF Done:  E(RHF) =  -230.193310946     A.U. after    8 cycles
 E2 =    -0.8837213978D+00 EUMP2 =    -0.23107703234360D+03
 E2 =    -0.8837213978D+00 EUMP2 =    -0.23107703234359D+03
 SCF Done:  E(RHF) =  -230.193813624     A.U. after    8 cycles
 E2 =    -0.8831970829D+00 EUMP2 =    -0.23107701070637D+03
 E2 =    -0.8831970829D+00 EUMP2 =    -0.23107701070637D+03
 SCF Done:  E(RHF) =  -230.192658971     A.U. after    8 cycles
 E2 =    -0.8843551474D+00 EUMP2 =    -0.23107701411840D+03
 E2 =    -0.8843551474D+00 EUMP2 =    -0.23107701411840D+03
 SCF Done:  E(RHF) =  -230.193518529     A.U. after    8 cycles
 E2 =    -0.8834779520D+00 EUMP2 =    -0.23107699648117D+03
 E2 =    -0.8834779520D+00 EUMP2 =    -0.23107699648117D+03
 SCF Done:  E(RHF) =  -230.192930232     A.U. after    8 cycles
 E2 =    -0.8840705210D+00 EUMP2 =    -0.23107700075307D+03
 E2 =    -0.8840705210D+00 EUMP2 =    -0.23107700075307D+03

 Alpha  occ. eigenvalues --  -20.57579 -20.53656 -11.27853 -11.27851  -1.38938
 Alpha  occ. eigenvalues --   -1.31814  -0.97902  -0.88891  -0.70578  -0.66563
 Alpha  occ. eigenvalues --   -0.65383  -0.64937  -0.56214  -0.55716  -0.53727
 Alpha  occ. eigenvalues --   -0.49910  -0.48073  -0.44304
 Alpha virt. eigenvalues --    0.02811   0.03902   0.03953   0.04865   0.05816
 Alpha virt. eigenvalues --    0.06088   0.06648   0.08629   0.10737   0.12203
 Alpha virt. eigenvalues --    0.12446   0.13422   0.14043   0.15193   0.15551

 Mulliken charges:
               1
     1  C   -0.868301
     2  O   -0.357216
     3  H    0.341262
     4  H    0.336382
     5  H    0.376334
     6  C   -0.868261
     7  H    0.376370
     8  H    0.336412
     9  H    0.341200
    10  O   -0.516364
    11  H    0.306874
    12  H    0.195308
 Sum of Mulliken charges =  -0.00000

 Dipole moment (field-independent basis, Debye):
    X=             -1.9178    Y=             -0.0001    Z=             -0.5910  Tot=              2.0068
 Quadrupole moment (field-independent basis, Debye-Ang):
   XX=            -26.8056   YY=            -24.8977   ZZ=            -27.6737
   XY=             -0.0005   XZ=             -5.0783   YZ=              0.0006

  Exact polarizability:  44.367   0.001  45.272  -1.055   0.000  38.329
 Approx polarizability:  33.688   0.000  33.474  -0.843   0.000  33.113

                      1                      2                      3
                      A                      A                      A
 Frequencies --     41.7940                43.0655               107.4355
 Red. masses --      3.3457                 2.1520                 1.0829
 Frc consts  --      0.0034                 0.0024                 0.0074
 IR Inten    --     17.2715                16.3446                95.8199

                      4                      5                      6
                      A                      A                      A
 Frequencies --    176.7566               198.4272               270.5471
 Red. masses --      2.7105                 1.0365                 1.5788
 Frc consts  --      0.0499                 0.0240                 0.0681
 IR Inten    --      4.1803                 0.0235                27.4704

                      7                      8                      9
                      A                      A                      A
 Frequencies --    376.2961               420.1775               660.5012
 Red. masses --      1.1229                 2.1275                 1.0312
 Frc consts  --      0.0937                 0.2213                 0.2650
 IR Inten    --     88.0414                20.2715                47.0630

                     10                     11                     12
                      A                      A                      A
 Frequencies --    944.2146              1123.8978              1174.5019
 Red. masses --      4.2664                 1.8995                 1.2137
 Frc consts  --      2.2411                 1.4136                 0.9864
 IR Inten    --     42.6197                47.1250                 0.0026

                     13                     14                     15
                      A                      A                      A
 Frequencies --   1200.2726              1206.2717              1277.3777
 Red. masses --      2.6139                 1.3546                 1.5722
 Frc consts  --      2.2187                 1.1613                 1.5114
 IR Inten    --     84.4736                 6.0051                 6.8050

                     16                     17                     18
                      A                      A                      A
 Frequencies --   1469.7267              1498.6915              1506.5787
 Red. masses --      1.1189                 1.1644                 1.0429
 Frc consts  --      1.4240                 1.5410                 1.3947
 IR Inten    --      1.2566                 0.2270                 0.1024

                     19                     20                     21
                      A                      A                      A
 Frequencies --   1517.4399              1518.1087              1531.6119
 Red. masses --      1.0501                 1.0478                 1.0472
 Frc consts  --      1.4246                 1.4228                 1.4473
 IR Inten    --      9.4339                17.7205                 6.6400

                     22                     23                     24
                      A                      A                      A
 Frequencies --   1649.9641              3036.4905              3039.7195
 Red. masses --      1.0754                 1.0325                 1.0338
 Frc consts  --      1.7250                 5.6092                 5.6281
 IR Inten    --     41.4313                38.7363                47.0730

                     25                     26                     27
                      A                      A                      A
 Frequencies --   3108.5998              3115.2758              3187.3957
 Red. masses --      1.1045                 1.1065                 1.1007
 Frc consts  --      6.2886                 6.3268                 6.5884
 IR Inten    --     69.1023                 0.0961                13.7114

                     28                     29                     30
                      A                      A                      A
 Frequencies --   3187.9640              3636.6039              3907.1672
 Red. masses --      1.1014                 1.0572                 1.0712
 Frc consts  --      6.5949                 8.2373                 9.6347
 IR Inten    --     13.2359               448.5669               107.6965

 - Thermochemistry -
 -------------------
 Temperature   298.150 Kelvin.  Pressure   1.00000 Atm.
 Atom     1 has atomic number  6 and mass  12.00000

 Molecular mass:    64.05243 amu.
 Principal axes and moments of inertia in atomic units:
                           1         2         3
     Eigenvalues --   197.90879 478.86471 615.43412
           X            0.99956   0.00001  -0.02965
           Y           -0.00001   1.00000   0.00001
           Z            0.02965  -0.00001   0.99956
 This molecule is an asymmetric top.
 Rotational symmetry number  1.
 Rotational temperatures (Kelvin)      0.43765     0.18087     0.14074
 Rotational constants (GHZ):           9.11906     3.76879     2.93247
 Zero-point vibrational energy     275935.9 (Joules/Mol)
                                   65.95026 (Kcal/Mol)
 Warning -- explicit consideration of   8 degrees of freedom as
           vibrations may cause significant error
 Vibrational temperatures:     60.13    61.96   154.58   254.31   285.49
          (Kelvin)            389.26   541.41   604.54   950.31  1358.51
                             1617.04  1689.85  1726.92  1735.56  1837.86
                             2114.61  2156.28  2167.63  2183.26  2184.22
                             2203.65  2373.93  4368.83  4373.48  4472.58
                             4482.19  4585.95  4586.77  5232.26  5621.54

 Zero-point correction=                           0.105098 (Hartree/Particle)
 Thermal correction to Energy=                    0.112889
 Thermal correction to Enthalpy=                  0.113833
 Thermal correction to Gibbs Free Energy=         0.072796
 Sum of electronic and zero-point Energies=           -230.972003
 Sum of electronic and thermal Energies=              -230.964213
 Sum of electronic and thermal Enthalpies=            -230.963268
 Sum of electronic and thermal Free Energies=         -231.004306

                     E (Thermal)             CV                S
                      KCal/Mol        Cal/Mol-Kelvin    Cal/Mol-Kelvin
 Total                   70.839             23.134             86.371
 Electronic               0.000              0.000              0.000
 Translational            0.889              2.981             38.390
 Rotational               0.889              2.981             25.570
 Vibrational             69.062             17.172             22.411
 Vibration     1          0.594              1.980              5.172
 Vibration     2          0.595              1.980              5.113
 Vibration     3          0.606              1.943              3.315
 Vibration     4          0.628              1.871              2.362
 Vibration     5          0.637              1.842              2.148
 Vibration     6          0.674              1.727              1.593
 Vibration     7          0.747              1.521              1.054
 Vibration     8          0.783              1.426              0.891

 ## DEPERTURBED TRANSITIONS MOMENTS ##

 Electric dipole : Fundamental Bands
 ------------------------------------------------------------------------

 ## AFTER VARIATIONAL CORRECTION

 Electric dipole : Fundamental Bands
 ------------------------------------------------------------------------

                           ! Non-Optimized Parameters !
 Normal termination of Gaussian 16 at Wed Dec 22 16:43:34 2021.
