 Gaussian 16, Revision A.03,
 Gaussian 16:  ES64L-G16RevA.03 25-Dec-2016

 ---------------------------------------------
 # MP2/aug-cc-pVDZ Opt Freq(vibrot,anharmonic)
 ---------------------------------------------

 ---------
 h2o meome
 ---------
 Symbolic Z-matrix:
 Charge =  0 Multiplicity = 1

 SCF Done:  E(RHF) =  -230.130977944     A.U. after   12 cycles
 E2 =    -0.7302329332D+00 EUMP2 =    -0.23086121087746D+03
 SCF Done:  E(RHF) =  -230.131329222     A.U. after   10 cycles
 E2 =    -0.7309796037D+00 EUMP2 =    -0.23086230882571D+03
 SCF Done:  E(RHF) =  -230.131695990     A.U. after   10 cycles
 E2 =    -0.7308273184D+00 EUMP2 =    -0.23086252330875D+03
 SCF Done:  E(RHF) =  -230.131916779     A.U. after   10 cycles
 E2 =    -0.7306613654D+00 EUMP2 =    -0.23086257814481D+03
 SCF Done:  E(RHF) =  -230.132017091     A.U. after    9 cycles
 E2 =    -0.7305899724D+00 EUMP2 =    -0.23086260706384D+03
 SCF Done:  E(RHF) =  -230.132152616     A.U. after   10 cycles
 E2 =    -0.7305154783D+00 EUMP2 =    -0.23086266809475D+03
 SCF Done:  E(RHF) =  -230.132162303     A.U. after   11 cycles
 E2 =    -0.7306200047D+00 EUMP2 =    -0.23086278230761D+03
 SCF Done:  E(RHF) =  -230.131887003     A.U. after   11 cycles
 E2 =    -0.7310564368D+00 EUMP2 =    -0.23086294343970D+03
 SCF Done:  E(RHF) =  -230.132316845     A.U. after   11 cycles
 E2 =    -0.7304966973D+00 EUMP2 =    -0.23086281354197D+03
 SCF Done:  E(RHF) =  -230.131768669     A.U. after   11 cycles
 E2 =    -0.7314880444D+00 EUMP2 =    -0.23086325671330D+03
 E2 =    -0.7341690991D+00 EUMP2 =    -0.23086218162504D+03
 E2 =    -0.7322409484D+00 EUMP2 =    -0.23086331878349D+03
 E2 =    -0.7320208900D+00 EUMP2 =    -0.23086341742585D+03
 E2 =    -0.7322003799D+00 EUMP2 =    -0.23086343707906D+03
 E2 =    -0.7323485579D+00 EUMP2 =    -0.23086344181269D+03
 E2 =    -0.7323741295D+00 EUMP2 =    -0.23086344240226D+03
 E2 =    -0.7323768636D+00 EUMP2 =    -0.23086344375090D+03
 E2 =    -0.7323706317D+00 EUMP2 =    -0.23086344394774D+03
 E2 =    -0.7323673500D+00 EUMP2 =    -0.23086344406358D+03
 E2 =    -0.7323599101D+00 EUMP2 =    -0.23086344431616D+03
 Optimization completed.
    -- Stationary point found.
 Normal termination of Gaussian 16 at Thu Aug  6 23:27:09 2020.

 ----------------------------------------------------------------------
 #N Geom=AllCheck Guess=TCheck SCRF=Check GenChk RMP2(FC)/Aug-CC-pVDZ F
 req
 ----------------------------------------------------------------------

 Structure from the checkpoint file:  "h2o_meome.chk"
 ---------
 h2o meome
 ---------
 Charge =  0 Multiplicity = 1

                         Standard orientation:
 ---------------------------------------------------------------------
 Center     Atomic      Atomic             Coordinates (Angstroms)
 Number     Number       Type             X           Y           Z
 ---------------------------------------------------------------------
      1          6           0       -0.935637   -1.177329    0.157426
      2          8           0       -0.528478   -0.000091   -0.550121
      3          1           0       -2.035103   -1.208606    0.255782
      4          1           0       -0.475879   -1.207912    1.161274
      5          1           0       -0.593440   -2.039363   -0.429365
      6          6           0       -0.935520    1.177357    0.157152
      7          1           0       -0.594465    2.039204   -0.430569
      8          1           0       -0.474654    1.208786    1.160467
      9          1           0       -2.034893    1.208071    0.256727
     10          8           0        2.187037    0.000548    0.170741
     11          1           0        1.325445   -0.000232   -0.288606
     12          1           0        2.841459   -0.003781   -0.538143
 ---------------------------------------------------------------------

 SCF Done:  E(RHF) =  -230.131017421     A.U. after    7 cycles
 E2 =    -0.7323616847D+00 EUMP2 =    -0.23086337910557D+03
 E2 =    -0.7323616847D+00 EUMP2 =    -0.23086337910557D+03
 SCF Done:  E(RHF) =  -230.131017467     A.U. after    7 cycles
 E2 =    -0.7323616300D+00 EUMP2 =    -0.23086337909655D+03
 E2 =    -0.7323616300D+00 EUMP2 =    -0.23086337909655D+03
 SCF Done:  E(RHF) =  -230.131016479     A.U. after    8 cycles
 E2 =    -0.7323595520D+00 EUMP2 =    -0.23086337603121D+03
 E2 =    -0.7323595520D+00 EUMP2 =    -0.23086337603121D+03
 SCF Done:  E(RHF) =  -230.131012517     A.U. after    8 cycles
 E2 =    -0.7323636066D+00 EUMP2 =    -0.23086337612347D+03
 E2 =    -0.7323636066D+00 EUMP2 =    -0.23086337612347D+03
 SCF Done:  E(RHF) =  -230.130928293     A.U. after    8 cycles
 E2 =    -0.7324485592D+00 EUMP2 =    -0.23086337685258D+03
 E2 =    -0.7324485592D+00 EUMP2 =    -0.23086337685258D+03
 SCF Done:  E(RHF) =  -230.131100498     A.U. after    8 cycles
 E2 =    -0.7322747030D+00 EUMP2 =    -0.23086337520104D+03
 E2 =    -0.7322747030D+00 EUMP2 =    -0.23086337520104D+03
 SCF Done:  E(RHF) =  -230.131617529     A.U. after    9 cycles
 E2 =    -0.7317362153D+00 EUMP2 =    -0.23086335374457D+03
 E2 =    -0.7317362153D+00 EUMP2 =    -0.23086335374457D+03
 SCF Done:  E(RHF) =  -230.130366819     A.U. after    9 cycles
 E2 =    -0.7329913254D+00 EUMP2 =    -0.23086335814476D+03
 E2 =    -0.7329913254D+00 EUMP2 =    -0.23086335814476D+03
 SCF Done:  E(RHF) =  -230.130664933     A.U. after    9 cycles
 E2 =    -0.7326794760D+00 EUMP2 =    -0.23086334440867D+03
 E2 =    -0.7326794760D+00 EUMP2 =    -0.23086334440867D+03
 SCF Done:  E(RHF) =  -230.131296077     A.U. after    9 cycles
 E2 =    -0.7320440303D+00 EUMP2 =    -0.23086334010752D+03
 E2 =    -0.7320440303D+00 EUMP2 =    -0.23086334010752D+03

 Alpha  occ. eigenvalues --  -20.58563 -20.54725 -11.28982 -11.28979  -1.38492
 Alpha  occ. eigenvalues --   -1.32443  -0.97416  -0.88562  -0.70747  -0.65854
 Alpha  occ. eigenvalues --   -0.65023  -0.64304  -0.55966  -0.55809  -0.53293
 Alpha  occ. eigenvalues --   -0.49724  -0.48132  -0.44133
 Alpha virt. eigenvalues --    0.03476   0.04698   0.04787   0.06138   0.06817
 Alpha virt. eigenvalues --    0.07258   0.08201   0.10167   0.12483   0.14568
 Alpha virt. eigenvalues --    0.15237   0.16659   0.17211   0.18398   0.18895

 Mulliken charges:
               1
     1  C    0.731401
     2  O   -0.773311
     3  H   -0.134805
     4  H   -0.040145
     5  H   -0.196813
     6  C    0.731423
     7  H   -0.196651
     8  H   -0.040620
     9  H   -0.134499
    10  O   -0.272503
    11  H    0.175728
    12  H    0.150795
 Sum of Mulliken charges =  -0.00000

 Dipole moment (field-independent basis, Debye):
    X=             -1.6872    Y=             -0.0073    Z=             -0.5157  Tot=              1.7643
 Quadrupole moment (field-independent basis, Debye-Ang):
   XX=            -26.8492   YY=            -25.2071   ZZ=            -28.1959
   XY=             -0.0244   XZ=             -5.0675   YZ=              0.0057

  Exact polarizability:  44.761  -0.002  45.619  -1.028   0.000  38.412
 Approx polarizability:  34.060  -0.003  33.840  -0.742   0.005  33.422

                      1                      2                      3
                      A                      A                      A
 Frequencies --     36.7465                70.6810               110.5417
 Red. masses --      2.6786                 2.2015                 1.1696
 Frc consts  --      0.0021                 0.0065                 0.0084
 IR Inten    --     41.4181                18.4002                75.7890

                      4                      5                      6
                      A                      A                      A
 Frequencies --    179.7807               188.9616               274.6201
 Red. masses --      2.5823                 1.0434                 1.6077
 Frc consts  --      0.0492                 0.0220                 0.0714
 IR Inten    --      4.6930                 0.0166                29.0707

                      7                      8                      9
                      A                      A                      A
 Frequencies --    389.0560               421.5689               665.2929
 Red. masses --      1.1833                 1.9288                 1.0304
 Frc consts  --      0.1055                 0.2020                 0.2687
 IR Inten    --     85.5043                33.1315                45.3885

                     10                     11                     12
                      A                      A                      A
 Frequencies --    923.8394              1100.2819              1155.4387
 Red. masses --      4.3130                 2.0916                 1.2121
 Frc consts  --      2.1688                 1.4919                 0.9534
 IR Inten    --     39.1993                54.0668                 0.0101

                     13                     14                     15
                      A                      A                      A
 Frequencies --   1175.9782              1188.5420              1259.6923
 Red. masses --      2.3274                 1.3541                 1.5747
 Frc consts  --      1.8963                 1.1270                 1.4722
 IR Inten    --     74.4133                 6.2398                 6.7270

                     16                     17                     18
                      A                      A                      A
 Frequencies --   1439.8656              1471.0579              1474.4341
 Red. masses --      1.1164                 1.1577                 1.0437
 Frc consts  --      1.3636                 1.4761                 1.3369
 IR Inten    --      1.3999                 0.5397                 0.0292

                     19                     20                     21
                      A                      A                      A
 Frequencies --   1488.4147              1489.2272              1502.4159
 Red. masses --      1.0502                 1.0477                 1.0493
 Frc consts  --      1.3709                 1.3691                 1.3955
 IR Inten    --      8.7775                15.8267                 6.1220

                     22                     23                     24
                      A                      A                      A
 Frequencies --   1646.0460              3033.6758              3037.7686
 Red. masses --      1.0747                 1.0324                 1.0338
 Frc consts  --      1.7156                 5.5979                 5.6207
 IR Inten    --     46.2974                42.6225                47.6820

                     25                     26                     27
                      A                      A                      A
 Frequencies --   3112.9876              3118.8350              3189.4856
 Red. masses --      1.1049                 1.1067                 1.1011
 Frc consts  --      6.3085                 6.3426                 6.5999
 IR Inten    --     74.9234                 0.1038                16.6266

                     28                     29                     30
                      A                      A                      A
 Frequencies --   3190.6874              3626.1403              3895.3785
 Red. masses --      1.1018                 1.0568                 1.0719
 Frc consts  --      6.6085                 8.1870                 9.5832
 IR Inten    --     16.9370               395.0329               104.5827

 - Thermochemistry -
 -------------------
 Temperature   298.150 Kelvin.  Pressure   1.00000 Atm.
 Atom     1 has atomic number  6 and mass  12.00000

 Molecular mass:    64.05243 amu.
 Principal axes and moments of inertia in atomic units:
                           1         2         3
     Eigenvalues --   203.19625 467.15128 603.46192
           X            0.99950  -0.00014  -0.03171
           Y            0.00014   1.00000   0.00003
           Z            0.03171  -0.00003   0.99950
 This molecule is an asymmetric top.
 Rotational symmetry number  1.
 Rotational temperatures (Kelvin)      0.42626     0.18541     0.14353
 Rotational constants (GHZ):           8.88176     3.86329     2.99065
 Zero-point vibrational energy     274288.4 (Joules/Mol)
                                   65.55650 (Kcal/Mol)
 Warning -- explicit consideration of   8 degrees of freedom as
           vibrations may cause significant error
 Vibrational temperatures:     52.87   101.69   159.04   258.66   271.87
          (Kelvin)            395.12   559.76   606.54   957.21  1329.20
                             1583.06  1662.42  1691.97  1710.05  1812.42
                             2071.65  2116.52  2121.38  2141.50  2142.67
                             2161.64  2368.29  4364.78  4370.67  4478.89
                             4487.31  4588.96  4590.69  5217.21  5604.58

 Zero-point correction=                           0.104471 (Hartree/Particle)
 Thermal correction to Energy=                    0.112213
 Thermal correction to Enthalpy=                  0.113157
 Thermal correction to Gibbs Free Energy=         0.072493
 Sum of electronic and zero-point Energies=           -230.758974
 Sum of electronic and thermal Energies=              -230.751232
 Sum of electronic and thermal Enthalpies=            -230.750288
 Sum of electronic and thermal Free Energies=         -230.790952

                     E (Thermal)             CV                S
                      KCal/Mol        Cal/Mol-Kelvin    Cal/Mol-Kelvin
 Total                   70.415             23.228             85.584
 Electronic               0.000              0.000              0.000
 Translational            0.889              2.981             38.390
 Rotational               0.889              2.981             25.552
 Vibrational             68.637             17.266             21.641
 Vibration     1          0.594              1.982              5.427
 Vibration     2          0.598              1.968              4.134
 Vibration     3          0.606              1.941              3.259
 Vibration     4          0.629              1.867              2.331
 Vibration     5          0.633              1.855              2.238
 Vibration     6          0.677              1.720              1.567
 Vibration     7          0.757              1.494              1.004
 Vibration     8          0.784              1.423              0.887

 ## DEPERTURBED TRANSITIONS MOMENTS ##

 Electric dipole : Fundamental Bands
 ------------------------------------------------------------------------

 ## AFTER VARIATIONAL CORRECTION

 Electric dipole : Fundamental Bands
 ------------------------------------------------------------------------

                           ! Non-Optimized Parameters !
 Normal termination of Gaussian 16 at Fri Aug  7 01:47:38 2020.
