 Gaussian 16, Revision A.03,
 Gaussian 16:  ES64L-G16RevA.03 25-Dec-2016

 ----------------------------------------------
 # MP2/aug-cc-pVTZ opt freq=(vibrot,anharmonic)
 ----------------------------------------------

 ----
 bleh
 ----
 Symbolic Z-matrix:
 Charge =  0 Multiplicity = 1

 SCF Done:  E(RHF) =  -249.398378873     A.U. after   12 cycles
 E2 =    -0.1044255105D+01 EUMP2 =    -0.25044263397864D+03
 SCF Done:  E(RHF) =  -249.400789365     A.U. after    9 cycles
 E2 =    -0.1042749474D+01 EUMP2 =    -0.25044353883912D+03
 SCF Done:  E(RHF) =  -249.400218578     A.U. after   10 cycles
 E2 =    -0.1042954762D+01 EUMP2 =    -0.25044317334003D+03
 SCF Done:  E(RHF) =  -249.400797746     A.U. after    9 cycles
 E2 =    -0.1042759006D+01 EUMP2 =    -0.25044355675277D+03
 SCF Done:  E(RHF) =  -249.400855909     A.U. after    8 cycles
 E2 =    -0.1042702560D+01 EUMP2 =    -0.25044355846866D+03
 SCF Done:  E(RHF) =  -249.400875763     A.U. after    7 cycles
 E2 =    -0.1042682495D+01 EUMP2 =    -0.25044355825879D+03
 SCF Done:  E(RHF) =  -249.400984792     A.U. after    9 cycles
 E2 =    -0.1042572126D+01 EUMP2 =    -0.25044355691744D+03
 SCF Done:  E(RHF) =  -249.400913399     A.U. after    8 cycles
 E2 =    -0.1042646875D+01 EUMP2 =    -0.25044356027436D+03
 SCF Done:  E(RHF) =  -249.400920119     A.U. after    8 cycles
 E2 =    -0.1042641466D+01 EUMP2 =    -0.25044356158507D+03
 SCF Done:  E(RHF) =  -249.400912772     A.U. after    9 cycles
 E2 =    -0.1042651391D+01 EUMP2 =    -0.25044356416327D+03
 E2 =    -0.1042661306D+01 EUMP2 =    -0.25044356580286D+03
 E2 =    -0.1042684018D+01 EUMP2 =    -0.25044356680574D+03
 E2 =    -0.1042710230D+01 EUMP2 =    -0.25044356778924D+03
 E2 =    -0.1042725161D+01 EUMP2 =    -0.25044356825821D+03
 E2 =    -0.1042739134D+01 EUMP2 =    -0.25044356811701D+03
 E2 =    -0.1042719368D+01 EUMP2 =    -0.25044356872245D+03
 E2 =    -0.1042716565D+01 EUMP2 =    -0.25044357056031D+03
 E2 =    -0.1042724045D+01 EUMP2 =    -0.25044357195277D+03
 E2 =    -0.1042727112D+01 EUMP2 =    -0.25044357258992D+03
 E2 =    -0.1042722710D+01 EUMP2 =    -0.25044357356901D+03
 Optimization completed.
    -- Stationary point found.
 Normal termination of Gaussian 16 at Mon Dec 20 16:49:14 2021.

 ----------------------------------------------------------------------
 #N Geom=AllCheck Guess=TCheck SCRF=Check GenChk RMP2(FC)/Aug-CC-pVTZ F
 req
 ----------------------------------------------------------------------

 Structure from the checkpoint file:  "/gscratch/scrubbed/gds001/Gau-3797.chk"
 ----
 bleh
 ----
 Charge =  0 Multiplicity = 1

                         Standard orientation:
 ---------------------------------------------------------------------
 Center     Atomic      Atomic             Coordinates (Angstroms)
 Number     Number       Type             X           Y           Z
 ---------------------------------------------------------------------
      1          8           0       -2.491292    0.000044    0.131071
      2          1           0       -2.855619    0.001220    1.019911
      3          1           0       -1.516284    0.000248    0.255409
      4          7           0        0.329399    0.000048    0.049288
      5          6           0        0.975879    1.196162    0.570426
      6          6           0        0.380649   -0.002335   -1.408005
      7          6           0        0.976483   -1.194042    0.574307
      8          1           0        2.034393    1.248173    0.274771
      9          1           0        0.919780    1.198733    1.658262
     10          1           0        0.464769    2.080281    0.192115
     11          1           0        1.417003   -0.002644   -1.776337
     12          1           0       -0.129661    0.880280   -1.790429
     13          1           0       -0.129143   -0.886505   -1.787519
     14          1           0        2.034899   -1.246697    0.278422
     15          1           0        0.920818   -1.192849    1.662167
     16          1           0        0.465525   -2.079642    0.199271
 ---------------------------------------------------------------------

                      1                      2                      3
                      A                      A                      A
 Frequencies --     11.4783                61.1736                95.3840
 Red. masses --      3.2386                 2.8758                 1.0672
 Frc consts  --      0.0003                 0.0063                 0.0057
 IR Inten    --     12.9610                 5.1412                95.0009

                      4                      5                      6
                      A                      A                      A
 Frequencies --    166.5546               245.9820               282.5394
 Red. masses --      5.0583                 1.0165                 1.0858
 Frc consts  --      0.0827                 0.0362                 0.0511
 IR Inten    --      0.9884                 0.0002                 0.2830

                      7                      8                      9
                      A                      A                      A
 Frequencies --    283.8987               407.4885               417.4040
 Red. masses --      1.0825                 2.1882                 2.0610
 Frc consts  --      0.0514                 0.2141                 0.2116
 IR Inten    --      0.3085                 3.8617                 0.1239

                     10                     11                     12
                      A                      A                      A
 Frequencies --    417.7789               482.7985               785.1238
 Red. masses --      2.0709                 1.0792                 1.0323
 Frc consts  --      0.2130                 0.1482                 0.3749
 IR Inten    --     10.4095               122.4422                28.8128

                     13                     14                     15
                      A                      A                      A
 Frequencies --    852.3631              1066.7941              1068.5248
 Red. masses --      3.8227                 1.9793                 1.3745
 Frc consts  --      1.6363                 1.3271                 0.9246
 IR Inten    --     35.8882                17.2703                 5.6108

                     16                     17                     18
                      A                      A                      A
 Frequencies --   1070.5086              1126.2482              1128.3346
 Red. masses --      1.6051                 1.3087                 1.3186
 Frc consts  --      1.0838                 0.9780                 0.9891
 IR Inten    --     11.6781                 5.5846                 8.1089

                     19                     20                     21
                      A                      A                      A
 Frequencies --   1229.9058              1305.3056              1308.7371
 Red. masses --      1.6776                 2.6112                 2.6470
 Frc consts  --      1.4951                 2.6213                 2.6713
 IR Inten    --     25.1583                11.5084                12.1969

                     22                     23                     24
                      A                      A                      A
 Frequencies --   1442.3228              1442.9425              1480.8879
 Red. masses --      1.1634                 1.1618                 1.2085
 Frc consts  --      1.4260                 1.4252                 1.5615
 IR Inten    --      0.0188                 0.0231                 0.2617

                     25                     26                     27
                      A                      A                      A
 Frequencies --   1499.9934              1501.1365              1502.4706
 Red. masses --      1.0411                 1.0406                 1.0461
 Frc consts  --      1.3801                 1.3815                 1.3913
 IR Inten    --      3.6828                 4.4783                 0.5804

                     28                     29                     30
                      A                      A                      A
 Frequencies --   1523.1725              1525.6964              1526.9592
 Red. masses --      1.0446                 1.0545                 1.0533
 Frc consts  --      1.4279                 1.4462                 1.4469
 IR Inten    --     26.9864                12.1256                11.2335

                     31                     32                     33
                      A                      A                      A
 Frequencies --   1670.1067              2988.7466              2990.0512
 Red. masses --      1.0700                 1.0511                 1.0515
 Frc consts  --      1.7585                 5.5318                 5.5386
 IR Inten    --     25.4323                33.2803                79.0901

                     34                     35                     36
                      A                      A                      A
 Frequencies --   2993.4568              3115.5875              3115.6213
 Red. masses --      1.0514                 1.0796                 1.0807
 Frc consts  --      5.5507                 6.1746                 6.1809
 IR Inten    --    122.6899                29.9646                12.3677

                     37                     38                     39
                      A                      A                      A
 Frequencies --   3121.9104              3165.0669              3166.7474
 Red. masses --      1.0810                 1.1047                 1.1042
 Frc consts  --      6.2077                 6.5199                 6.5239
 IR Inten    --     16.3919                 3.8880                22.4717

                     40                     41                     42
                      A                      A                      A
 Frequencies --   3170.8674              3416.9904              3898.4341
 Red. masses --      1.1043                 1.0631                 1.0679
 Frc consts  --      6.5415                 7.3136                 9.5621
 IR Inten    --     14.4447               941.3728                76.1948

 - Thermochemistry -
 -------------------
 Temperature   298.150 Kelvin.  Pressure   1.00000 Atm.
 Atom     1 has atomic number  8 and mass  15.99491

 Molecular mass:    77.08406 amu.
 Principal axes and moments of inertia in atomic units:
                           1         2         3
     Eigenvalues --   353.79954 702.81471 710.33914
           X            0.99995  -0.00002  -0.00977
           Y            0.00002   1.00000   0.00037
           Z            0.00977  -0.00037   0.99995
 This molecule is an asymmetric top.
 Rotational symmetry number  1.
 Rotational temperatures (Kelvin)      0.24481     0.12324     0.12193
 Rotational constants (GHZ):           5.10103     2.56788     2.54068
 Zero-point vibrational energy     383244.6 (Joules/Mol)
                                   91.59766 (Kcal/Mol)
 Warning -- explicit consideration of  11 degrees of freedom as
           vibrations may cause significant error
 Vibrational temperatures:     16.51    88.02   137.24   239.63   353.91
          (Kelvin)            406.51   408.47   586.29   600.55   601.09
                              694.64  1129.62  1226.36  1534.88  1537.37
                             1540.22  1620.42  1623.42  1769.56  1878.04
                             1882.98  2075.18  2076.07  2130.67  2158.16
                             2159.80  2161.72  2191.51  2195.14  2196.95
                             2402.91  4300.14  4302.02  4306.92  4482.64
                             4482.68  4491.73  4553.83  4556.24  4562.17
                             4916.29  5608.98

 Zero-point correction=                           0.145970 (Hartree/Particle)
 Thermal correction to Energy=                    0.154753
 Thermal correction to Enthalpy=                  0.155697
 Thermal correction to Gibbs Free Energy=         0.111541
 Sum of electronic and zero-point Energies=           -250.297607
 Sum of electronic and thermal Energies=              -250.288825
 Sum of electronic and thermal Enthalpies=            -250.287880
 Sum of electronic and thermal Free Energies=         -250.332036

                     E (Thermal)             CV                S
                      KCal/Mol        Cal/Mol-Kelvin    Cal/Mol-Kelvin
 Total                   97.109             28.435             92.933
 Electronic               0.000              0.000              0.000
 Translational            0.889              2.981             38.942
 Rotational               0.889              2.981             26.671
 Vibrational             95.331             22.473             27.320
 Vibration     1          0.593              1.987              7.737
 Vibration     2          0.597              1.973              4.419
 Vibration     3          0.603              1.952              3.547
 Vibration     4          0.624              1.884              2.474
 Vibration     5          0.660              1.769              1.759
 Vibration     6          0.682              1.706              1.518
 Vibration     7          0.682              1.704              1.510
 Vibration     8          0.772              1.454              0.936
 Vibration     9          0.780              1.432              0.901
 Vibration    10          0.781              1.432              0.900
 Vibration    11          0.839              1.288              0.703

 E2 =    -0.1042683102D+01 EUMP2 =    -0.25044356153764D+03
 SCF Done:  E(RHF) =  -249.400889229     A.U. after    6 cycles
 E2 =    -0.1042672228D+01 EUMP2 =    -0.25044356145670D+03
 E2 =    -0.1042672228D+01 EUMP2 =    -0.25044356145670D+03
 SCF Done:  E(RHF) =  -249.400889200     A.U. after    6 cycles
 E2 =    -0.1042672262D+01 EUMP2 =    -0.25044356146188D+03
 E2 =    -0.1042672262D+01 EUMP2 =    -0.25044356146188D+03
 SCF Done:  E(RHF) =  -249.400888452     A.U. after    7 cycles
 E2 =    -0.1042673019D+01 EUMP2 =    -0.25044356147143D+03
 E2 =    -0.1042673019D+01 EUMP2 =    -0.25044356147143D+03
 SCF Done:  E(RHF) =  -249.400889934     A.U. after    7 cycles
 E2 =    -0.1042671462D+01 EUMP2 =    -0.25044356139544D+03
 E2 =    -0.1042671462D+01 EUMP2 =    -0.25044356139544D+03
 SCF Done:  E(RHF) =  -249.400973280     A.U. after    7 cycles
 E2 =    -0.1042584919D+01 EUMP2 =    -0.25044355819895D+03
 E2 =    -0.1042584919D+01 EUMP2 =    -0.25044355819894D+03
 SCF Done:  E(RHF) =  -249.400794569     A.U. after    7 cycles
 E2 =    -0.1042763914D+01 EUMP2 =    -0.25044355848312D+03
 E2 =    -0.1042763914D+01 EUMP2 =    -0.25044355848312D+03
 SCF Done:  E(RHF) =  -249.400846451     A.U. after    7 cycles
 E2 =    -0.1042670369D+01 EUMP2 =    -0.25044351682009D+03
 E2 =    -0.1042670369D+01 EUMP2 =    -0.25044351682009D+03
 SCF Done:  E(RHF) =  -249.400844891     A.U. after    7 cycles
 E2 =    -0.1042671926D+01 EUMP2 =    -0.25044351681637D+03
 E2 =    -0.1042671926D+01 EUMP2 =    -0.25044351681637D+03
 SCF Done:  E(RHF) =  -249.400977500     A.U. after    8 cycles
 E2 =    -0.1042538670D+01 EUMP2 =    -0.25044351616969D+03
 E2 =    -0.1042538670D+01 EUMP2 =    -0.25044351616969D+03

 Alpha  occ. eigenvalues --  -20.52256 -15.56614 -11.25060 -11.25058 -11.24806
 Alpha  occ. eigenvalues --   -1.30680  -1.24281  -0.96427  -0.96092  -0.82193
 Alpha  occ. eigenvalues --   -0.69215  -0.64584  -0.64194  -0.64050  -0.55960
 Alpha  occ. eigenvalues --   -0.55630  -0.54492  -0.52898  -0.51202  -0.51201
 Alpha  occ. eigenvalues --   -0.46833  -0.37984
 Alpha virt. eigenvalues --    0.02597   0.03699   0.03909   0.04241   0.05768
 Alpha virt. eigenvalues --    0.05843   0.05865   0.06233   0.06421   0.08037
 Alpha virt. eigenvalues --    0.09818   0.11730   0.11994   0.12387   0.12939

 Mulliken charges:
               1
     1  O   -0.562753
     2  H    0.151701
     3  H    0.354787
     4  N    0.315181
     5  C   -0.978988
     6  C   -1.050641
     7  C   -0.978900
     8  H    0.305820
     9  H    0.302812
    10  H    0.307382
    11  H    0.268195
    12  H    0.324707
    13  H    0.324670
    14  H    0.305888
    15  H    0.302714
    16  H    0.307426
 Sum of Mulliken charges =  -0.00000

 Dipole moment (field-independent basis, Debye):
    X=              2.6551    Y=              0.0017    Z=              1.1382  Tot=              2.8888
 Quadrupole moment (field-independent basis, Debye-Ang):
   XX=            -40.4553   YY=            -33.9056   ZZ=            -31.6613
   XY=             -0.0054   XZ=             -3.4654   YZ=              0.0029

  Exact polarizability:  62.153  -0.000  58.452  -0.125   0.001  58.579
 Approx polarizability:  48.522  -0.000  46.866  -0.400   0.002  48.080

 SCF Done:  E(RHF) =  -249.400713471     A.U. after    8 cycles
 E2 =    -0.1042803903D+01 EUMP2 =    -0.25044351737381D+03
