 Gaussian 16, Revision A.03,
 Gaussian 16:  ES64L-G16RevA.03 25-Dec-2016

 ----------------------------------------------
 # MP2/aug-cc-pVTZ opt freq=(vibrot,anharmonic)
 ----------------------------------------------

 ----
 bleh
 ----
 Symbolic Z-matrix:
 Charge =  0 Multiplicity = 1

 SCF Done:  E(RHF) =  -132.287161616     A.U. after   10 cycles
 E2 =    -0.5130591112D+00 EUMP2 =    -0.13280022072750D+03
 Optimization completed.
    -- Stationary point found.
 Normal termination of Gaussian 16 at Tue Nov 30 12:43:09 2021.

 ----------------------------------------------------------------------
 #N Geom=AllCheck Guess=TCheck SCRF=Check GenChk RMP2(FC)/Aug-CC-pVTZ F
 req
 ----------------------------------------------------------------------

 Structure from the checkpoint file:  "/gscratch/scrubbed/gds001/Gau-3690.chk"
 ----
 bleh
 ----
 Charge =  0 Multiplicity = 1

                         Standard orientation:
 ---------------------------------------------------------------------
 Center     Atomic      Atomic             Coordinates (Angstroms)
 Number     Number       Type             X           Y           Z
 ---------------------------------------------------------------------
      1          8           0       -0.038041    1.547324    0.000000
      2          7           0       -0.038041   -1.374981    0.000000
      3          1           0        0.076605    0.579048    0.000000
      4          1           0       -1.037138   -1.541778    0.000000
      5          1           0        0.337864   -1.845101    0.814055
      6          1           0        0.337864   -1.845101   -0.814055
      7          1           0        0.855426    1.899205    0.000000
 ---------------------------------------------------------------------

 SCF Done:  E(RHF) =  -132.287161616     A.U. after    1 cycles
 E2 =    -0.5130591156D+00 EUMP2 =    -0.13280022073195D+03
 E2 =    -0.5130591156D+00 EUMP2 =    -0.13280022073195D+03
 SCF Done:  E(RHF) =  -132.287159625     A.U. after    8 cycles
 E2 =    -0.5130611046D+00 EUMP2 =    -0.13280022072964D+03
 E2 =    -0.5130611046D+00 EUMP2 =    -0.13280022072964D+03
 SCF Done:  E(RHF) =  -132.287159625     A.U. after    8 cycles
 E2 =    -0.5130611046D+00 EUMP2 =    -0.13280022072964D+03
 E2 =    -0.5130611046D+00 EUMP2 =    -0.13280022072964D+03
 SCF Done:  E(RHF) =  -132.287150541     A.U. after    7 cycles
 E2 =    -0.5130699948D+00 EUMP2 =    -0.13280022053592D+03
 E2 =    -0.5130699948D+00 EUMP2 =    -0.13280022053592D+03
 SCF Done:  E(RHF) =  -132.287170278     A.U. after    7 cycles
 E2 =    -0.5130502674D+00 EUMP2 =    -0.13280022054562D+03
 E2 =    -0.5130502674D+00 EUMP2 =    -0.13280022054562D+03
 SCF Done:  E(RHF) =  -132.287160145     A.U. after    7 cycles
 E2 =    -0.5130603729D+00 EUMP2 =    -0.13280022051804D+03
 E2 =    -0.5130603729D+00 EUMP2 =    -0.13280022051804D+03
 SCF Done:  E(RHF) =  -132.287160145     A.U. after    7 cycles
 E2 =    -0.5130603731D+00 EUMP2 =    -0.13280022051805D+03
 E2 =    -0.5130603731D+00 EUMP2 =    -0.13280022051805D+03
 SCF Done:  E(RHF) =  -132.287139367     A.U. after    7 cycles
 E2 =    -0.5130810926D+00 EUMP2 =    -0.13280022045989D+03
 E2 =    -0.5130810926D+00 EUMP2 =    -0.13280022045989D+03
 SCF Done:  E(RHF) =  -132.287182480     A.U. after    7 cycles
 E2 =    -0.5130379818D+00 EUMP2 =    -0.13280022046221D+03
 E2 =    -0.5130379818D+00 EUMP2 =    -0.13280022046221D+03
 E2 =    -0.5130545357D+00 EUMP2 =    -0.13280021929814D+03
 SCF Done:  E(RHF) =  -132.287485721     A.U. after    8 cycles
 E2 =    -0.5126512717D+00 EUMP2 =    -0.13280013699255D+03
 E2 =    -0.5126512717D+00 EUMP2 =    -0.13280013699255D+03
 SCF Done:  E(RHF) =  -132.286668160     A.U. after    8 cycles
 E2 =    -0.5134708359D+00 EUMP2 =    -0.13280013899592D+03
 E2 =    -0.5134708359D+00 EUMP2 =    -0.13280013899592D+03
 SCF Done:  E(RHF) =  -132.287586358     A.U. after    8 cycles
 E2 =    -0.5125452389D+00 EUMP2 =    -0.13280013159714D+03
 E2 =    -0.5125452389D+00 EUMP2 =    -0.13280013159714D+03
 SCF Done:  E(RHF) =  -132.286560066     A.U. after    8 cycles
 E2 =    -0.5135757502D+00 EUMP2 =    -0.13280013581577D+03
 E2 =    -0.5135757502D+00 EUMP2 =    -0.13280013581577D+03
 SCF Done:  E(RHF) =  -132.287059790     A.U. after    8 cycles
 E2 =    -0.5130705538D+00 EUMP2 =    -0.13280013034390D+03
 E2 =    -0.5130705538D+00 EUMP2 =    -0.13280013034390D+03
 SCF Done:  E(RHF) =  -132.287083732     A.U. after    8 cycles
 E2 =    -0.5130480914D+00 EUMP2 =    -0.13280013182330D+03
 E2 =    -0.5130480914D+00 EUMP2 =    -0.13280013182330D+03
 SCF Done:  E(RHF) =  -132.287071582     A.U. after    8 cycles
 E2 =    -0.5130592995D+00 EUMP2 =    -0.13280013088147D+03
 E2 =    -0.5130592995D+00 EUMP2 =    -0.13280013088147D+03
 SCF Done:  E(RHF) =  -132.287071582     A.U. after    8 cycles
 E2 =    -0.5130592995D+00 EUMP2 =    -0.13280013088148D+03
 E2 =    -0.5130592995D+00 EUMP2 =    -0.13280013088148D+03
 SCF Done:  E(RHF) =  -132.286742390     A.U. after    8 cycles
 E2 =    -0.5133773799D+00 EUMP2 =    -0.13280011977020D+03
 E2 =    -0.5133773799D+00 EUMP2 =    -0.13280011977020D+03
 SCF Done:  E(RHF) =  -132.287374584     A.U. after    8 cycles
 E2 =    -0.5127406637D+00 EUMP2 =    -0.13280011524789D+03
 E2 =    -0.5127406637D+00 EUMP2 =    -0.13280011524789D+03

 Alpha  occ. eigenvalues --  -20.52288 -15.56557  -1.31050  -1.16830  -0.68109
 Alpha  occ. eigenvalues --   -0.65400  -0.65226  -0.55058  -0.46934  -0.45507
 Alpha virt. eigenvalues --    0.02255   0.04414   0.04552   0.05107   0.07908
 Alpha virt. eigenvalues --    0.13427   0.14276   0.15400   0.15728   0.17755
 Alpha virt. eigenvalues --    0.18031   0.19256   0.20692   0.21285   0.22834

 Mulliken charges:
               1
     1  O   -0.485530
     2  N   -0.420522
     3  H    0.255592
     4  H    0.149859
     5  H    0.164249
     6  H    0.164249
     7  H    0.172103
 Sum of Mulliken charges =  -0.00000

 Dipole moment (field-independent basis, Debye):
    X=              1.1763    Y=             -3.2873    Z=              0.0000  Tot=              3.4915
 Quadrupole moment (field-independent basis, Debye-Ang):
   XX=            -12.1930   YY=            -13.0442   ZZ=            -14.1594
   XY=              3.1737   XZ=              0.0000   YZ=             -0.0000

  Exact polarizability:  21.926   0.937  28.128  -0.000  -0.000  21.718
 Approx polarizability:  17.944   0.333  18.354   0.000  -0.000  16.863

                      1                      2                      3
                     A"                     A'                     A"
 Frequencies --     11.4846               168.5950               179.0673
 Red. masses --      1.0932                 1.4193                 1.0639
 Frc consts  --      0.0001                 0.0238                 0.0201
 IR Inten    --     66.4034                30.1198                42.9280

                      4                      5                      6
                     A'                     A'                     A"
 Frequencies --    201.3188               460.8361               715.8958
 Red. masses --      2.2968                 1.0818                 1.0463
 Frc consts  --      0.0548                 0.1354                 0.3159
 IR Inten    --     26.3450                82.2525                86.4033

                      7                      8                      9
                     A'                     A'                     A"
 Frequencies --   1094.1774              1653.5716              1669.1378
 Red. masses --      1.1859                 1.0764                 1.0646
 Frc consts  --      0.8365                 1.7341                 1.7476
 IR Inten    --    146.6650                55.5227                16.6533

                     10                     11                     12
                     A'                     A'                     A'
 Frequencies --   1678.5343              3499.0811              3588.1384
 Red. masses --      1.0623                 1.0269                 1.0586
 Frc consts  --      1.7634                 7.4077                 8.0303
 IR Inten    --      1.7317                 2.0195               569.8474

                     13                     14                     15
                     A'                     A"                     A'
 Frequencies --   3642.1696              3646.2715              3907.8353
 Red. masses --      1.0893                 1.0895                 1.0700
 Frc consts  --      8.5135                 8.5344                 9.6271
 IR Inten    --     17.2683                15.8672                85.7624

 - Thermochemistry -
 -------------------
 Temperature   298.150 Kelvin.  Pressure   1.00000 Atm.
 Atom     1 has atomic number  8 and mass  15.99491

 Molecular mass:    35.03711 amu.
 Principal axes and moments of inertia in atomic units:
                           1         2         3
     Eigenvalues --    12.07484 282.72390 285.25869
           X            0.02471   0.99969   0.00000
           Y            0.99969  -0.02471   0.00000
           Z            0.00000  -0.00000   1.00000
 This molecule is an asymmetric top.
 Rotational symmetry number  1.
 Rotational temperatures (Kelvin)      7.17309     0.30636     0.30363
 Rotational constants (GHZ):         149.46294     6.38341     6.32668
 Zero-point vibrational energy     156209.1 (Joules/Mol)
                                   37.33486 (Kcal/Mol)
 Warning -- explicit consideration of   5 degrees of freedom as
           vibrations may cause significant error
 Vibrational temperatures:     16.52   242.57   257.64   289.65   663.04
          (Kelvin)           1030.01  1574.28  2379.12  2401.52  2415.04
                             5034.40  5162.53  5240.27  5246.17  5622.50

 Zero-point correction=                           0.059497 (Hartree/Particle)
 Thermal correction to Energy=                    0.065406
 Thermal correction to Enthalpy=                  0.066350
 Thermal correction to Gibbs Free Energy=         0.031250
 Sum of electronic and zero-point Energies=           -132.740724
 Sum of electronic and thermal Energies=              -132.734814
 Sum of electronic and thermal Enthalpies=            -132.733870
 Sum of electronic and thermal Free Energies=         -132.768970

                     E (Thermal)             CV                S
                      KCal/Mol        Cal/Mol-Kelvin    Cal/Mol-Kelvin
 Total                   41.043             16.080             73.874
 Electronic               0.000              0.000              0.000
 Translational            0.889              2.981             36.592
 Rotational               0.889              2.981             21.504
 Vibrational             39.266             10.119             15.779
 Vibration     1          0.593              1.987              7.736
 Vibration     2          0.625              1.881              2.451
 Vibration     3          0.629              1.868              2.338
 Vibration     4          0.638              1.838              2.121
 Vibration     5          0.819              1.337              0.764

 ## DEPERTURBED TRANSITIONS MOMENTS ##

 Electric dipole : Fundamental Bands
 ------------------------------------------------------------------------

 ## AFTER VARIATIONAL CORRECTION

 Electric dipole : Fundamental Bands
 ------------------------------------------------------------------------

 Optimization completed.
    -- Stationary point found.
 Normal termination of Gaussian 16 at Tue Nov 30 14:55:10 2021.
