 Gaussian 16, Revision A.03,
 Gaussian 16:  ES64L-G16RevA.03 25-Dec-2016

 ---------------------------------------------
 # MP2/aug-cc-pVDZ Opt Freq(vibrot,anharmonic)
 ---------------------------------------------

 -------
 h2o_h2o
 -------
 Symbolic Z-matrix:
 Charge =  0 Multiplicity = 1

 SCF Done:  E(RHF) =  -152.083586139     A.U. after   11 cycles
 E2 =    -0.4448075676D+00 EUMP2 =    -0.15252839370620D+03
 SCF Done:  E(RHF) =  -152.084888361     A.U. after   11 cycles
 E2 =    -0.4441955671D+00 EUMP2 =    -0.15252908392834D+03
 SCF Done:  E(RHF) =  -152.087229936     A.U. after   10 cycles
 E2 =    -0.4423889617D+00 EUMP2 =    -0.15252961889769D+03
 SCF Done:  E(RHF) =  -152.087304367     A.U. after    9 cycles
 E2 =    -0.4424694308D+00 EUMP2 =    -0.15252977379805D+03
 SCF Done:  E(RHF) =  -152.087434648     A.U. after   10 cycles
 E2 =    -0.4425176824D+00 EUMP2 =    -0.15252995233055D+03
 SCF Done:  E(RHF) =  -152.087512597     A.U. after    9 cycles
 E2 =    -0.4424717109D+00 EUMP2 =    -0.15252998430751D+03
 SCF Done:  E(RHF) =  -152.087573229     A.U. after    9 cycles
 E2 =    -0.4424424854D+00 EUMP2 =    -0.15253001571403D+03
 SCF Done:  E(RHF) =  -152.087545822     A.U. after    9 cycles
 E2 =    -0.4425207108D+00 EUMP2 =    -0.15253006653284D+03
 SCF Done:  E(RHF) =  -152.087490886     A.U. after   10 cycles
 E2 =    -0.4426611075D+00 EUMP2 =    -0.15253015199327D+03
 SCF Done:  E(RHF) =  -152.087468503     A.U. after   10 cycles
 E2 =    -0.4427189897D+00 EUMP2 =    -0.15253018749259D+03
 E2 =    -0.4428011109D+00 EUMP2 =    -0.15253020430839D+03
 E2 =    -0.4427837192D+00 EUMP2 =    -0.15253020509233D+03
 E2 =    -0.4427641123D+00 EUMP2 =    -0.15253020661837D+03
 E2 =    -0.4427782261D+00 EUMP2 =    -0.15253020671663D+03
 Optimization completed.
    -- Stationary point found.
 Normal termination of Gaussian 16 at Tue Aug  4 16:30:44 2020.

 ----------------------------------------------------------------------
 #N Geom=AllCheck Guess=TCheck SCRF=Check GenChk RMP2(FC)/Aug-CC-pVDZ F
 req
 ----------------------------------------------------------------------

 Structure from the checkpoint file:  "h2o_h2o.chk"
 -------
 h2o_h2o
 -------
 Charge =  0 Multiplicity = 1

                         Standard orientation:
 ---------------------------------------------------------------------
 Center     Atomic      Atomic             Coordinates (Angstroms)
 Number     Number       Type             X           Y           Z
 ---------------------------------------------------------------------
      1          8           0       -1.516823    0.007920   -0.122619
      2          1           0       -0.560151   -0.007268    0.053298
      3          1           0       -1.920337   -0.049515    0.751906
      4          8           0        1.390241   -0.007119    0.112393
      5          1           0        1.738794    0.786368   -0.315714
      6          1           0        1.754352   -0.735998   -0.407686
 ---------------------------------------------------------------------

 E2 =    -0.4427782275D+00 EUMP2 =    -0.15253020671804D+03
 E2 =    -0.4427782275D+00 EUMP2 =    -0.15253020671804D+03
 E2 =    -0.4427806634D+00 EUMP2 =    -0.15253020641016D+03
 E2 =    -0.4427806634D+00 EUMP2 =    -0.15253020641016D+03
 E2 =    -0.4427805625D+00 EUMP2 =    -0.15253020680676D+03
 E2 =    -0.4427805625D+00 EUMP2 =    -0.15253020680676D+03
 SCF Done:  E(RHF) =  -152.087512597     A.U. after    8 cycles
 E2 =    -0.4426760875D+00 EUMP2 =    -0.15253018868449D+03
 E2 =    -0.4426760875D+00 EUMP2 =    -0.15253018868449D+03
 SCF Done:  E(RHF) =  -152.087298976     A.U. after    8 cycles
 E2 =    -0.4428893095D+00 EUMP2 =    -0.15253018828507D+03
 E2 =    -0.4428893095D+00 EUMP2 =    -0.15253018828507D+03
 SCF Done:  E(RHF) =  -152.086669861     A.U. after    9 cycles
 E2 =    -0.4434461106D+00 EUMP2 =    -0.15253011597171D+03
 E2 =    -0.4434461106D+00 EUMP2 =    -0.15253011597171D+03
 SCF Done:  E(RHF) =  -152.087998562     A.U. after    9 cycles
 E2 =    -0.4421133960D+00 EUMP2 =    -0.15253011195796D+03
 E2 =    -0.4421133960D+00 EUMP2 =    -0.15253011195796D+03
 SCF Done:  E(RHF) =  -152.086758443     A.U. after    9 cycles
 E2 =    -0.4433526849D+00 EUMP2 =    -0.15253011112766D+03
 E2 =    -0.4433526849D+00 EUMP2 =    -0.15253011112766D+03
 SCF Done:  E(RHF) =  -152.087900877     A.U. after    9 cycles
 E2 =    -0.4422066647D+00 EUMP2 =    -0.15253010754202D+03
 E2 =    -0.4422066647D+00 EUMP2 =    -0.15253010754202D+03
 SCF Done:  E(RHF) =  -152.087600495     A.U. after    9 cycles
 E2 =    -0.4425012351D+00 EUMP2 =    -0.15253010172959D+03
 E2 =    -0.4425012351D+00 EUMP2 =    -0.15253010172959D+03
 SCF Done:  E(RHF) =  -152.087051300     A.U. after    9 cycles
 E2 =    -0.4430543303D+00 EUMP2 =    -0.15253010562993D+03
 E2 =    -0.4430543303D+00 EUMP2 =    -0.15253010562993D+03
 SCF Done:  E(RHF) =  -152.087324315     A.U. after    8 cycles
 E2 =    -0.4427783403D+00 EUMP2 =    -0.15253010265560D+03
 E2 =    -0.4427783403D+00 EUMP2 =    -0.15253010265560D+03
 SCF Done:  E(RHF) =  -152.087326055     A.U. after    8 cycles
 E2 =    -0.4427765009D+00 EUMP2 =    -0.15253010255589D+03
 E2 =    -0.4427765009D+00 EUMP2 =    -0.15253010255589D+03

 Alpha  occ. eigenvalues --  -20.60391 -20.54716  -1.37971  -1.32184  -0.73878
 Alpha  occ. eigenvalues --   -0.69164  -0.61419  -0.55891  -0.52979  -0.47990
 Alpha virt. eigenvalues --    0.02815   0.05525   0.05591   0.09139   0.15768
 Alpha virt. eigenvalues --    0.18450   0.21118   0.21438   0.22714   0.23714
 Alpha virt. eigenvalues --    0.26085   0.28324   0.29508   0.33233   0.35002

 Mulliken charges:
               1
     1  O   -0.269315
     2  H    0.176619
     3  H    0.104599
     4  O   -0.307973
     5  H    0.156533
     6  H    0.139537
 Sum of Mulliken charges =   0.00000

 Dipole moment (field-independent basis, Debye):
    X=              2.6015    Y=              0.0029    Z=              0.1408  Tot=              2.6053
 Quadrupole moment (field-independent basis, Debye-Ang):
   XX=            -11.7670   YY=            -12.4373   ZZ=            -13.2708
   XY=              0.4183   XZ=             -6.2323   YZ=              0.0148

  Exact polarizability:  21.293   0.089  18.194  -0.778  -0.030  17.799
 Approx polarizability:  14.237   0.078  13.862  -0.949  -0.069  13.990

                      1                      2                      3
                      A                      A                      A
 Frequencies --    126.7090               148.3988               150.5202
 Red. masses --      1.0710                 1.3658                 1.0356
 Frc consts  --      0.0101                 0.0177                 0.0138
 IR Inten    --    111.9154               157.1258                61.4668

                      4                      5                      6
                      A                      A                      A
 Frequencies --    183.8891               358.3229               638.9112
 Red. masses --      2.8901                 1.1041                 1.0405
 Frc consts  --      0.0576                 0.0835                 0.2503
 IR Inten    --    121.9522                53.7841                91.3576

                      7                      8                      9
                      A                      A                      A
 Frequencies --   1624.2642              1642.6677              3704.3952
 Red. masses --      1.0832                 1.0763                 1.0528
 Frc consts  --      1.6837                 1.7111                 8.5121
 IR Inten    --     86.0145                32.2518               279.8633

                     10                     11                     12
                      A                      A                      A
 Frequencies --   3795.9545              3904.3919              3924.8618
 Red. masses --      1.0454                 1.0747                 1.0813
 Frc consts  --      8.8754                 9.6524                 9.8135
 IR Inten    --     10.2990               113.7182                88.1558

 - Thermochemistry -
 -------------------
 Temperature   298.150 Kelvin.  Pressure   1.00000 Atm.
 Atom     1 has atomic number  8 and mass  15.99491

 Molecular mass:    36.02113 amu.
 Principal axes and moments of inertia in atomic units:
                           1         2         3
     Eigenvalues --     8.42810 282.59393 282.66909
           X            0.99937  -0.03316  -0.01247
           Y           -0.00227  -0.41121   0.91154
           Z            0.03535   0.91094   0.41103
 This molecule is an asymmetric top.
 Rotational symmetry number  1.
 Rotational temperatures (Kelvin)     10.27680     0.30650     0.30641
 Rotational constants (GHZ):         214.13383     6.38634     6.38464
 Zero-point vibrational energy     120842.5 (Joules/Mol)
                                   28.88205 (Kcal/Mol)
 Warning -- explicit consideration of   5 degrees of freedom as
           vibrations may cause significant error
 Vibrational temperatures:    182.31   213.51   216.57   264.58   515.55
          (Kelvin)            919.25  2336.95  2363.43  5329.80  5461.53
                             5617.55  5647.00

 Zero-point correction=                           0.046026 (Hartree/Particle)
 Thermal correction to Energy=                    0.051916
 Thermal correction to Enthalpy=                  0.052860
 Thermal correction to Gibbs Free Energy=         0.019609
 Sum of electronic and zero-point Energies=           -152.484180
 Sum of electronic and thermal Energies=              -152.478290
 Sum of electronic and thermal Enthalpies=            -152.477346
 Sum of electronic and thermal Free Energies=         -152.510598

                     E (Thermal)             CV                S
                      KCal/Mol        Cal/Mol-Kelvin    Cal/Mol-Kelvin
 Total                   32.578             16.158             69.984
 Electronic               0.000              0.000              0.000
 Translational            0.889              2.981             36.674
 Rotational               0.889              2.981             21.137
 Vibrational             30.801             10.197             12.172
 Vibration     1          0.611              1.926              2.995
 Vibration     2          0.618              1.904              2.693
 Vibration     3          0.618              1.902              2.666
 Vibration     4          0.631              1.862              2.289
 Vibration     5          0.733              1.558              1.129

 ## DEPERTURBED TRANSITIONS MOMENTS ##

 Electric dipole : Fundamental Bands
 ------------------------------------------------------------------------

 ## AFTER VARIATIONAL CORRECTION

 Electric dipole : Fundamental Bands
 ------------------------------------------------------------------------

                           ! Non-Optimized Parameters !
 Normal termination of Gaussian 16 at Tue Aug  4 16:38:24 2020.
