 Gaussian 16, Revision C.01,
 Gaussian 16:  EM64L-G16RevC.01  3-Jul-2019

 --------------------------------------------------------------------
 # MP2/aug-cc-pVTZ opt freq=(vibrot,anharmonic,selectAnharmonicModes)
 --------------------------------------------------------------------

 ----
 blah
 ----
 Symbolic Z-matrix:
 Charge =  0 Multiplicity = 1

 SCF Done:  E(RHF) =  -249.400907228     A.U. after   11 cycles
 E2 =    -0.1042669957D+01 EUMP2 =    -0.25044357718514D+03
 Optimization completed.
    -- Stationary point found.
 Normal termination of Gaussian 16 at Sat Mar 29 11:26:33 2025.

 ----------------------------------------------------------------------
 #N Geom=AllCheck Guess=TCheck SCRF=Check GenChk RMP2(FC)/Aug-CC-pVTZ F
 req
 ----------------------------------------------------------------------

 Structure from the checkpoint file:  "/scr/Gau-79104.chk"
 ----
 blah
 ----
 Charge =  0 Multiplicity = 1

                         Standard orientation:
 ---------------------------------------------------------------------
 Center     Atomic      Atomic             Coordinates (Angstroms)
 Number     Number       Type             X           Y           Z
 ---------------------------------------------------------------------
      1          8           0        2.491292    0.000044   -0.131071
      2          1           0        2.855619    0.001220   -1.019911
      3          1           0        1.516284    0.000248   -0.255409
      4          7           0       -0.329399    0.000048   -0.049288
      5          6           0       -0.975879    1.196162   -0.570426
      6          6           0       -0.380649   -0.002335    1.408005
      7          6           0       -0.976483   -1.194042   -0.574307
      8          1           0       -2.034393    1.248173   -0.274771
      9          1           0       -0.919780    1.198733   -1.658262
     10          1           0       -0.464769    2.080281   -0.192115
     11          1           0       -1.417003   -0.002644    1.776337
     12          1           0        0.129661    0.880280    1.790429
     13          1           0        0.129143   -0.886505    1.787519
     14          1           0       -2.034899   -1.246697   -0.278422
     15          1           0       -0.920818   -1.192849   -1.662167
     16          1           0       -0.465525   -2.079642   -0.199271
 ---------------------------------------------------------------------

 SCF Done:  E(RHF) =  -249.400907228     A.U. after    1 cycles
 E2 =    -0.1042669959D+01 EUMP2 =    -0.25044357718716D+03
 E2 =    -0.1042669959D+01 EUMP2 =    -0.25044357718715D+03

                      1                      2                      3
                      A                      A                      A
 Frequencies --     11.5051                61.1762                95.4171
 Red. masses --      3.2388                 2.8758                 1.0671
 Frc consts  --      0.0003                 0.0063                 0.0057
 IR Inten    --     12.9489                 5.1410                95.0130

                      4                      5                      6
                      A                      A                      A
 Frequencies --    166.5544               245.9858               282.5423
 Red. masses --      5.0583                 1.0165                 1.0858
 Frc consts  --      0.0827                 0.0362                 0.0511
 IR Inten    --      0.9884                 0.0002                 0.2830

                      7                      8                      9
                      A                      A                      A
 Frequencies --    283.9018               407.4890               417.4045
 Red. masses --      1.0825                 2.1882                 2.0610
 Frc consts  --      0.0514                 0.2141                 0.2116
 IR Inten    --      0.3084                 3.8626                 0.1243

                     10                     11                     12
                      A                      A                      A
 Frequencies --    417.7795               482.8041               785.1253
 Red. masses --      2.0709                 1.0792                 1.0323
 Frc consts  --      0.2130                 0.1482                 0.3749
 IR Inten    --     10.4081               122.4422                28.8128

                     13                     14                     15
                      A                      A                      A
 Frequencies --    852.3637              1066.7952              1068.5254
 Red. masses --      3.8227                 1.9792                 1.3745
 Frc consts  --      1.6363                 1.3271                 0.9246
 IR Inten    --     35.8883                17.2702                 5.6118

                     16                     17                     18
                      A                      A                      A
 Frequencies --   1070.5092              1126.2490              1128.3353
 Red. masses --      1.6051                 1.3087                 1.3186
 Frc consts  --      1.0838                 0.9780                 0.9891
 IR Inten    --     11.6773                 5.5847                 8.1088

                     19                     20                     21
                      A                      A                      A
 Frequencies --   1229.9063              1305.3063              1308.7373
 Red. masses --      1.6776                 2.6113                 2.6470
 Frc consts  --      1.4951                 2.6213                 2.6713
 IR Inten    --     25.1583                11.5085                12.1969

                     22                     23                     24
                      A                      A                      A
 Frequencies --   1442.3234              1442.9431              1480.8885
 Red. masses --      1.1634                 1.1618                 1.2085
 Frc consts  --      1.4260                 1.4252                 1.5615
 IR Inten    --      0.0188                 0.0231                 0.2617

                     25                     26                     27
                      A                      A                      A
 Frequencies --   1499.9937              1501.1368              1502.4708
 Red. masses --      1.0411                 1.0406                 1.0461
 Frc consts  --      1.3801                 1.3815                 1.3913
 IR Inten    --      3.6828                 4.4779                 0.5808

                     28                     29                     30
                      A                      A                      A
 Frequencies --   1523.1729              1525.6966              1526.9594
 Red. masses --      1.0446                 1.0545                 1.0533
 Frc consts  --      1.4279                 1.4462                 1.4469
 IR Inten    --     26.9863                12.1256                11.2336

                     31                     32                     33
                      A                      A                      A
 Frequencies --   1670.1077              2988.7447              2990.0493
 Red. masses --      1.0700                 1.0511                 1.0515
 Frc consts  --      1.7585                 5.5318                 5.5386
 IR Inten    --     25.4323                33.2803                79.0967

                     34                     35                     36
                      A                      A                      A
 Frequencies --   2993.4554              3115.5854              3115.6198
 Red. masses --      1.0514                 1.0797                 1.0807
 Frc consts  --      5.5507                 6.1747                 6.1808
 IR Inten    --    122.6836                29.7946                12.5375

                     37                     38                     39
                      A                      A                      A
 Frequencies --   3121.9081              3165.0646              3166.7452
 Red. masses --      1.0810                 1.1047                 1.1042
 Frc consts  --      6.2077                 6.5199                 6.5239
 IR Inten    --     16.3919                 3.8875                22.4724

                     40                     41                     42
                      A                      A                      A
 Frequencies --   3170.8650              3416.9871              3898.4274
 Red. masses --      1.1043                 1.0631                 1.0679
 Frc consts  --      6.5415                 7.3135                 9.5620
 IR Inten    --     14.4447               941.3720                76.1950

 - Thermochemistry -
 -------------------
 Temperature   298.150 Kelvin.  Pressure   1.00000 Atm.
 Atom     1 has atomic number  8 and mass  15.99491

 Molecular mass:    77.08406 amu.
 Principal axes and moments of inertia in atomic units:
                           1         2         3
     Eigenvalues --   353.79950 702.81482 710.33927
           X            0.99995   0.00002  -0.00977
           Y           -0.00002   1.00000  -0.00037
           Z            0.00977   0.00037   0.99995
 This molecule is an asymmetric top.
 Rotational symmetry number  1.
 Rotational temperatures (Kelvin)      0.24481     0.12324     0.12193
 Rotational constants (GHZ):           5.10103     2.56788     2.54067
 Zero-point vibrational energy     383245.0 (Joules/Mol)
                                   91.59775 (Kcal/Mol)
 Warning -- explicit consideration of  11 degrees of freedom as
           vibrations may cause significant error
 Vibrational temperatures:     16.55    88.02   137.28   239.63   353.92
          (Kelvin)            406.52   408.47   586.29   600.55   601.09
                              694.65  1129.62  1226.36  1534.88  1537.37
                             1540.22  1620.42  1623.42  1769.56  1878.04
                             1882.98  2075.18  2076.07  2130.67  2158.16
                             2159.80  2161.72  2191.51  2195.14  2196.95
                             2402.91  4300.14  4302.01  4306.91  4482.63
                             4482.68  4491.73  4553.82  4556.24  4562.17
                             4916.28  5608.97

 Zero-point correction=                           0.145970 (Hartree/Particle)
 Thermal correction to Energy=                    0.154753
 Thermal correction to Enthalpy=                  0.155697
 Thermal correction to Gibbs Free Energy=         0.111544
 Sum of electronic and zero-point Energies=           -250.297607
 Sum of electronic and thermal Energies=              -250.288825
 Sum of electronic and thermal Enthalpies=            -250.287880
 Sum of electronic and thermal Free Energies=         -250.332033

                     E (Thermal)             CV                S
                      KCal/Mol        Cal/Mol-Kelvin    Cal/Mol-Kelvin
 Total                   97.109             28.435             92.928
 Electronic               0.000              0.000              0.000
 Translational            0.889              2.981             38.942
 Rotational               0.889              2.981             26.671
 Vibrational             95.331             22.473             27.315
 Vibration     1          0.593              1.987              7.732
 Vibration     2          0.597              1.973              4.419
 Vibration     3          0.603              1.952              3.546
 Vibration     4          0.624              1.884              2.474
 Vibration     5          0.660              1.769              1.759
 Vibration     6          0.682              1.706              1.518
 Vibration     7          0.682              1.704              1.510
 Vibration     8          0.772              1.454              0.936
 Vibration     9          0.780              1.432              0.901
 Vibration    10          0.781              1.432              0.900
 Vibration    11          0.839              1.288              0.703

 SCF Done:  E(RHF) =  -249.400896676     A.U. after    7 cycles
 E2 =    -0.1042672733D+01 EUMP2 =    -0.25044356940939D+03
 E2 =    -0.1042672733D+01 EUMP2 =    -0.25044356940939D+03
 SCF Done:  E(RHF) =  -249.400900569     A.U. after    7 cycles
 E2 =    -0.1042669018D+01 EUMP2 =    -0.25044356958710D+03
 E2 =    -0.1042669018D+01 EUMP2 =    -0.25044356958710D+03
 SCF Done:  E(RHF) =  -249.400898065     A.U. after    6 cycles
 E2 =    -0.1042671395D+01 EUMP2 =    -0.25044356946072D+03
 E2 =    -0.1042671395D+01 EUMP2 =    -0.25044356946072D+03
 SCF Done:  E(RHF) =  -249.400898103     A.U. after    6 cycles
 E2 =    -0.1042671383D+01 EUMP2 =    -0.25044356948608D+03
 E2 =    -0.1042671383D+01 EUMP2 =    -0.25044356948608D+03
 SCF Done:  E(RHF) =  -249.400898280     A.U. after    6 cycles
 E2 =    -0.1042671166D+01 EUMP2 =    -0.25044356944620D+03
 E2 =    -0.1042671166D+01 EUMP2 =    -0.25044356944620D+03
 SCF Done:  E(RHF) =  -249.400898279     A.U. after    6 cycles
 E2 =    -0.1042671164D+01 EUMP2 =    -0.25044356944229D+03
 E2 =    -0.1042671164D+01 EUMP2 =    -0.25044356944229D+03
 SCF Done:  E(RHF) =  -249.400897531     A.U. after    7 cycles
 E2 =    -0.1042671137D+01 EUMP2 =    -0.25044356866747D+03
 E2 =    -0.1042671137D+01 EUMP2 =    -0.25044356866746D+03
 SCF Done:  E(RHF) =  -249.400896415     A.U. after    7 cycles
 E2 =    -0.1042672151D+01 EUMP2 =    -0.25044356856617D+03
 E2 =    -0.1042672151D+01 EUMP2 =    -0.25044356856617D+03
 E2 =    -0.1042671624D+01 EUMP2 =    -0.25044356859578D+03
 E2 =    -0.1042573306D+01 EUMP2 =    -0.25044351059349D+03
 SCF Done:  E(RHF) =  -249.400743742     A.U. after    8 cycles
 E2 =    -0.1042768313D+01 EUMP2 =    -0.25044351205492D+03
 E2 =    -0.1042768313D+01 EUMP2 =    -0.25044351205492D+03
 SCF Done:  E(RHF) =  -249.400839314     A.U. after    7 cycles
 E2 =    -0.1042670185D+01 EUMP2 =    -0.25044350949876D+03
 E2 =    -0.1042670185D+01 EUMP2 =    -0.25044350949876D+03
 SCF Done:  E(RHF) =  -249.400839253     A.U. after    7 cycles
 E2 =    -0.1042670234D+01 EUMP2 =    -0.25044350948675D+03
 E2 =    -0.1042670234D+01 EUMP2 =    -0.25044350948675D+03
 SCF Done:  E(RHF) =  -249.400847315     A.U. after    7 cycles
 E2 =    -0.1042662071D+01 EUMP2 =    -0.25044350938633D+03
 E2 =    -0.1042662071D+01 EUMP2 =    -0.25044350938633D+03
 SCF Done:  E(RHF) =  -249.400830726     A.U. after    7 cycles
 E2 =    -0.1042678731D+01 EUMP2 =    -0.25044350945670D+03
 E2 =    -0.1042678731D+01 EUMP2 =    -0.25044350945670D+03
 SCF Done:  E(RHF) =  -249.400838773     A.U. after    7 cycles
 E2 =    -0.1042670470D+01 EUMP2 =    -0.25044350924280D+03
 E2 =    -0.1042670470D+01 EUMP2 =    -0.25044350924280D+03
 SCF Done:  E(RHF) =  -249.400838802     A.U. after    7 cycles
 E2 =    -0.1042670435D+01 EUMP2 =    -0.25044350923752D+03
 E2 =    -0.1042670435D+01 EUMP2 =    -0.25044350923752D+03
 SCF Done:  E(RHF) =  -249.400240262     A.U. after    8 cycles
 E2 =    -0.1043260425D+01 EUMP2 =    -0.25044350068660D+03
 E2 =    -0.1043260425D+01 EUMP2 =    -0.25044350068660D+03
 SCF Done:  E(RHF) =  -249.401413273     A.U. after    8 cycles
 E2 =    -0.1042082564D+01 EUMP2 =    -0.25044349583690D+03
 E2 =    -0.1042082564D+01 EUMP2 =    -0.25044349583689D+03

 Alpha  occ. eigenvalues --  -20.52272 -15.56568 -11.25138 -11.25137 -11.24721
 Alpha  occ. eigenvalues --   -1.31039  -1.24239  -0.96303  -0.96068  -0.82107
 Alpha  occ. eigenvalues --   -0.69406  -0.64627  -0.64136  -0.64058  -0.55781
 Alpha  occ. eigenvalues --   -0.55627  -0.54652  -0.52853  -0.51175  -0.51162
 Alpha  occ. eigenvalues --   -0.46972  -0.37940
 Alpha virt. eigenvalues --    0.02606   0.03702   0.03914   0.04241   0.05765
 Alpha virt. eigenvalues --    0.05844   0.05869   0.06240   0.06424   0.08037
 Alpha virt. eigenvalues --    0.09808   0.11738   0.11997   0.12395   0.12951

 Mulliken charges:
               1
     1  O   -0.557740
     2  H    0.150680
     3  H    0.357915
     4  N    0.302576
     5  C   -0.976129
     6  C   -1.048462
     7  C   -0.976027
     8  H    0.303375
     9  H    0.302697
    10  H    0.307690
    11  H    0.270114
    12  H    0.324806
    13  H    0.324767
    14  H    0.303412
    15  H    0.302597
    16  H    0.307730
 Sum of Mulliken charges =  -0.00000

 Dipole moment (field-independent basis, Debye):
    X=             -2.5959    Y=              0.0017    Z=             -1.1391  Tot=              2.8349
 Quadrupole moment (field-independent basis, Debye-Ang):
   XX=            -40.3959   YY=            -33.9271   ZZ=            -31.6630
   XY=              0.0052   XZ=             -3.4943   YZ=             -0.0029

  Exact polarizability:      62.038       0.000      58.519      -0.098      -0.001      58.604
 Approx polarizability:      48.516       0.001      46.910      -0.414      -0.002      48.114

 SCF Done:  E(RHF) =  -249.400453049     A.U. after    8 cycles
 E2 =    -0.1043023829D+01 EUMP2 =    -0.25044347687740D+03
