 Gaussian 16, Revision A.03,
 Gaussian 16:  ES64L-G16RevA.03 25-Dec-2016

 -------------------------------------------------------
 # mp2/aug-cc-pVDZ Opt=Z-Matrix Freq(vibrot, anharmonic)
 -------------------------------------------------------

 -------
 h2o_nh3
 -------
 Symbolic Z-matrix:
 Charge =  0 Multiplicity = 1

 SCF Done:  E(RHF) =  -132.249094004     A.U. after   11 cycles
 E2 =    -0.4245759173D+00 EUMP2 =    -0.13267366992167D+03
 SCF Done:  E(RHF) =  -132.252826587     A.U. after   10 cycles
 E2 =    -0.4235629718D+00 EUMP2 =    -0.13267638955865D+03
 SCF Done:  E(RHF) =  -132.252941076     A.U. after    9 cycles
 E2 =    -0.4236501790D+00 EUMP2 =    -0.13267659125534D+03
 SCF Done:  E(RHF) =  -132.252809361     A.U. after   10 cycles
 E2 =    -0.4239143058D+00 EUMP2 =    -0.13267672366672D+03
 SCF Done:  E(RHF) =  -132.252782090     A.U. after    8 cycles
 E2 =    -0.4239563087D+00 EUMP2 =    -0.13267673839856D+03
 SCF Done:  E(RHF) =  -132.252252206     A.U. after   11 cycles
 E2 =    -0.4233582394D+00 EUMP2 =    -0.13267561044555D+03
 SCF Done:  E(RHF) =  -132.252785975     A.U. after   11 cycles
 E2 =    -0.4239784395D+00 EUMP2 =    -0.13267676441450D+03
 SCF Done:  E(RHF) =  -132.253019194     A.U. after   10 cycles
 E2 =    -0.4238244396D+00 EUMP2 =    -0.13267684363387D+03
 SCF Done:  E(RHF) =  -132.253038412     A.U. after    9 cycles
 E2 =    -0.4238233374D+00 EUMP2 =    -0.13267686174944D+03
 SCF Done:  E(RHF) =  -132.252975867     A.U. after    9 cycles
 E2 =    -0.4239057908D+00 EUMP2 =    -0.13267688165816D+03
 E2 =    -0.4239350214D+00 EUMP2 =    -0.13267688502494D+03
 E2 =    -0.4239760205D+00 EUMP2 =    -0.13267688802290D+03
 E2 =    -0.4239922840D+00 EUMP2 =    -0.13267688843429D+03
 Optimization completed.
    -- Stationary point found.
 Normal termination of Gaussian 16 at Mon Sep 28 15:51:27 2020.

 ----------------------------------------------------------------------
 #N Geom=AllCheck Guess=TCheck SCRF=Check GenChk RMP2(FC)/Aug-CC-pVDZ F
 req
 ----------------------------------------------------------------------

 Structure from the checkpoint file:  "h2o_nh3.chk"
 -------
 h2o_nh3
 -------
 Charge =  0 Multiplicity = 1

                         Standard orientation:
 ---------------------------------------------------------------------
 Center     Atomic      Atomic             Coordinates (Angstroms)
 Number     Number       Type             X           Y           Z
 ---------------------------------------------------------------------
      1          8           0        0.038856    1.556641    0.000000
      2          1           0       -0.861235    1.903790    0.000000
      3          1           0       -0.074120    0.584233    0.000000
      4          7           0        0.038856   -1.379948   -0.000000
      5          1           0       -0.806356   -1.950648   -0.000000
      6          1           0        0.579433   -1.665436    0.816651
      7          1           0        0.579433   -1.665436   -0.816651
 ---------------------------------------------------------------------

 E2 =    -0.4239922805D+00 EUMP2 =    -0.13267688843074D+03
 E2 =    -0.4239922805D+00 EUMP2 =    -0.13267688843074D+03
 E2 =    -0.4239944834D+00 EUMP2 =    -0.13267688842506D+03
 E2 =    -0.4239944834D+00 EUMP2 =    -0.13267688842506D+03
 E2 =    -0.4239944834D+00 EUMP2 =    -0.13267688842506D+03
 E2 =    -0.4239944834D+00 EUMP2 =    -0.13267688842506D+03
 E2 =    -0.4239842806D+00 EUMP2 =    -0.13267688821360D+03
 SCF Done:  E(RHF) =  -132.252331479     A.U. after    8 cycles
 E2 =    -0.4244761165D+00 EUMP2 =    -0.13267680759582D+03
 E2 =    -0.4244761165D+00 EUMP2 =    -0.13267680759582D+03
 SCF Done:  E(RHF) =  -132.253294878     A.U. after    8 cycles
 E2 =    -0.4235108024D+00 EUMP2 =    -0.13267680568094D+03
 E2 =    -0.4235108024D+00 EUMP2 =    -0.13267680568094D+03
 SCF Done:  E(RHF) =  -132.252246258     A.U. after    9 cycles
 E2 =    -0.4245572835D+00 EUMP2 =    -0.13267680354126D+03
 E2 =    -0.4245572835D+00 EUMP2 =    -0.13267680354126D+03
 SCF Done:  E(RHF) =  -132.253370304     A.U. after    9 cycles
 E2 =    -0.4234299690D+00 EUMP2 =    -0.13267680027329D+03
 E2 =    -0.4234299690D+00 EUMP2 =    -0.13267680027329D+03
 SCF Done:  E(RHF) =  -132.252807646     A.U. after    8 cycles
 E2 =    -0.4239917029D+00 EUMP2 =    -0.13267679934898D+03
 E2 =    -0.4239917029D+00 EUMP2 =    -0.13267679934898D+03
 SCF Done:  E(RHF) =  -132.252807646     A.U. after    8 cycles
 E2 =    -0.4239917029D+00 EUMP2 =    -0.13267679934898D+03
 E2 =    -0.4239917029D+00 EUMP2 =    -0.13267679934898D+03
 SCF Done:  E(RHF) =  -132.252797590     A.U. after    8 cycles
 E2 =    -0.4240025101D+00 EUMP2 =    -0.13267680010047D+03
 E2 =    -0.4240025101D+00 EUMP2 =    -0.13267680010047D+03
 SCF Done:  E(RHF) =  -132.252817538     A.U. after    8 cycles
 E2 =    -0.4239808349D+00 EUMP2 =    -0.13267679837316D+03
 E2 =    -0.4239808349D+00 EUMP2 =    -0.13267679837316D+03
 SCF Done:  E(RHF) =  -132.252452416     A.U. after    9 cycles
 E2 =    -0.4243357855D+00 EUMP2 =    -0.13267678820110D+03
 E2 =    -0.4243357855D+00 EUMP2 =    -0.13267678820110D+03
 SCF Done:  E(RHF) =  -132.253135378     A.U. after    9 cycles
 E2 =    -0.4236481880D+00 EUMP2 =    -0.13267678356580D+03
 E2 =    -0.4236481880D+00 EUMP2 =    -0.13267678356580D+03

 Alpha  occ. eigenvalues --  -20.53397 -15.57813  -1.31164  -1.16694  -0.67936
 Alpha  occ. eigenvalues --   -0.64920  -0.64911  -0.55095  -0.46830  -0.45559
 Alpha virt. eigenvalues --    0.02762   0.05370   0.05724   0.06008   0.09474
 Alpha virt. eigenvalues --    0.16705   0.18313   0.18899   0.20485   0.22552
 Alpha virt. eigenvalues --    0.22591   0.24451   0.27378   0.27947   0.30396

 Mulliken charges:
               1
     1  O   -0.283873
     2  H    0.070782
     3  H    0.259702
     4  N   -0.144971
     5  H    0.042349
     6  H    0.028006
     7  H    0.028006
 Sum of Mulliken charges =  -0.00000

 Dipole moment (field-independent basis, Debye):
    X=             -1.2034    Y=             -3.3356    Z=              0.0000  Tot=              3.5460
 Quadrupole moment (field-independent basis, Debye-Ang):
   XX=            -12.3534   YY=            -13.2159   ZZ=            -14.3473
   XY=             -3.2163   XZ=             -0.0000   YZ=             -0.0000

  Exact polarizability:  21.709  -0.987  28.142   0.000   0.000  21.367
 Approx polarizability:  17.917  -0.375  18.360  -0.000   0.000  16.729

                      1                      2                      3
                     A"                     A'                     A"
 Frequencies --     28.2990               169.7218               180.0621
 Red. masses --      1.0922                 1.4484                 1.0666
 Frc consts  --      0.0005                 0.0246                 0.0204
 IR Inten    --     68.6848                28.3136                42.1808

                      4                      5                      6
                     A'                     A'                     A"
 Frequencies --    198.8222               447.2515               728.0767
 Red. masses --      2.2340                 1.0830                 1.0479
 Frc consts  --      0.0520                 0.1276                 0.3273
 IR Inten    --     26.9583                83.9141                89.1976

                      7                      8                      9
                     A'                     A'                     A"
 Frequencies --   1108.1260              1644.2642              1646.7053
 Red. masses --      1.1833                 1.0718                 1.0625
 Frc consts  --      0.8561                 1.7074                 1.6974
 IR Inten    --    138.3231                42.1173                16.2906

                     10                     11                     12
                     A'                     A'                     A'
 Frequencies --   1661.1343              3479.0102              3577.7462
 Red. masses --      1.0656                 1.0278                 1.0583
 Frc consts  --      1.7324                 7.3292                 7.9811
 IR Inten    --     11.1384                 0.2338               547.4646

                     13                     14                     15
                     A"                     A'                     A'
 Frequencies --   3630.5565              3632.8812              3895.0105
 Red. masses --      1.0889                 1.0889                 1.0705
 Frc consts  --      8.4564                 8.4669                 9.5689
 IR Inten    --     12.3897                11.1635                84.7165

 - Thermochemistry -
 -------------------
 Temperature   298.150 Kelvin.  Pressure   1.00000 Atm.
 Atom     1 has atomic number  8 and mass  15.99491

 Molecular mass:    35.03711 amu.
 Principal axes and moments of inertia in atomic units:
                           1         2         3
     Eigenvalues --    12.20846 285.75273 288.36021
           X           -0.02461   0.99970   0.00000
           Y            0.99970   0.02461   0.00000
           Z           -0.00000   0.00000   1.00000
 This molecule is an asymmetric top.
 Rotational symmetry number  1.
 Rotational temperatures (Kelvin)      7.09458     0.30311     0.30037
 Rotational constants (GHZ):         147.82707     6.31574     6.25863
 Zero-point vibrational energy     155680.0 (Joules/Mol)
                                   37.20842 (Kcal/Mol)
 Warning -- explicit consideration of   5 degrees of freedom as
           vibrations may cause significant error
 Vibrational temperatures:     40.72   244.19   259.07   286.06   643.50
          (Kelvin)           1047.54  1594.35  2365.73  2369.24  2390.00
                             5005.52  5147.58  5223.56  5226.91  5604.05

 Zero-point correction=                           0.059295 (Hartree/Particle)
 Thermal correction to Energy=                    0.065174
 Thermal correction to Enthalpy=                  0.066118
 Thermal correction to Gibbs Free Energy=         0.031842
 Sum of electronic and zero-point Energies=           -132.617593
 Sum of electronic and thermal Energies=              -132.611714
 Sum of electronic and thermal Enthalpies=            -132.610770
 Sum of electronic and thermal Free Energies=         -132.645047

                     E (Thermal)             CV                S
                      KCal/Mol        Cal/Mol-Kelvin    Cal/Mol-Kelvin
 Total                   40.897             16.082             72.141
 Electronic               0.000              0.000              0.000
 Translational            0.889              2.981             36.592
 Rotational               0.889              2.981             21.536
 Vibrational             39.120             10.120             14.013
 Vibration     1          0.593              1.984              5.945
 Vibration     2          0.625              1.880              2.439
 Vibration     3          0.629              1.867              2.328
 Vibration     4          0.637              1.842              2.144
 Vibration     5          0.806              1.367              0.804

 ## DEPERTURBED TRANSITIONS MOMENTS ##

 Electric dipole : Fundamental Bands
 ------------------------------------------------------------------------

 ## AFTER VARIATIONAL CORRECTION

 Electric dipole : Fundamental Bands
 ------------------------------------------------------------------------

                       ! Non-Optimized Parameters !
 Normal termination of Gaussian 16 at Mon Sep 28 16:03:31 2020.
