 Gaussian 16, Revision A.03,
 Gaussian 16:  ES64L-G16RevA.03 25-Dec-2016

 ----------------------------------------------
 # MP2/aug-cc-pVTZ opt freq=(vibrot,anharmonic)
 ----------------------------------------------

 -----------
 water dimer
 -----------
 Symbolic Z-matrix:
 Charge =  0 Multiplicity = 1

 SCF Done:  E(RHF) =  -152.125313975     A.U. after   10 cycles
 E2 =    -0.5408557767D+00 EUMP2 =    -0.15266616975140D+03
 SCF Done:  E(RHF) =  -152.126044371     A.U. after    8 cycles
 E2 =    -0.5401935237D+00 EUMP2 =    -0.15266623789492D+03
 SCF Done:  E(RHF) =  -152.126118102     A.U. after    8 cycles
 E2 =    -0.5401184367D+00 EUMP2 =    -0.15266623653911D+03
 SCF Done:  E(RHF) =  -152.126186059     A.U. after    8 cycles
 E2 =    -0.5400531539D+00 EUMP2 =    -0.15266623921257D+03
 SCF Done:  E(RHF) =  -152.126114467     A.U. after    7 cycles
 E2 =    -0.5401257126D+00 EUMP2 =    -0.15266624017975D+03
 Optimization completed.
    -- Stationary point found.
 Normal termination of Gaussian 16 at Tue Nov 30 11:31:19 2021.

 ----------------------------------------------------------------------
 #N Geom=AllCheck Guess=TCheck SCRF=Check GenChk RMP2(FC)/Aug-CC-pVTZ F
 req
 ----------------------------------------------------------------------

 Structure from the checkpoint file:  "/gscratch/scrubbed/gds001/Gau-10587.chk"
 -----------
 water dimer
 -----------
 Charge =  0 Multiplicity = 1

                         Standard orientation:
 ---------------------------------------------------------------------
 Center     Atomic      Atomic             Coordinates (Angstroms)
 Number     Number       Type             X           Y           Z
 ---------------------------------------------------------------------
      1          8           0       -1.512960    0.006463   -0.121857
      2          1           0       -0.560072   -0.006178    0.051112
      3          1           0       -1.915866   -0.040545    0.748703
      4          8           0        1.386912   -0.005769    0.111299
      5          1           0        1.735167    0.780664   -0.320287
      6          1           0        1.749162   -0.739492   -0.395061
 ---------------------------------------------------------------------

 SCF Done:  E(RHF) =  -152.126114467     A.U. after    1 cycles
 E2 =    -0.5401257128D+00 EUMP2 =    -0.15266624017990D+03
 E2 =    -0.5401257128D+00 EUMP2 =    -0.15266624017990D+03
 SCF Done:  E(RHF) =  -152.126112322     A.U. after    8 cycles
 E2 =    -0.5401279245D+00 EUMP2 =    -0.15266624024685D+03
 E2 =    -0.5401279245D+00 EUMP2 =    -0.15266624024685D+03
 SCF Done:  E(RHF) =  -152.126112006     A.U. after    8 cycles
 E2 =    -0.5401278848D+00 EUMP2 =    -0.15266623989092D+03
 E2 =    -0.5401278848D+00 EUMP2 =    -0.15266623989092D+03
 SCF Done:  E(RHF) =  -152.126112189     A.U. after    8 cycles
 E2 =    -0.5401276284D+00 EUMP2 =    -0.15266623981699D+03
 E2 =    -0.5401276284D+00 EUMP2 =    -0.15266623981699D+03
 SCF Done:  E(RHF) =  -152.126112380     A.U. after    8 cycles
 E2 =    -0.5401278685D+00 EUMP2 =    -0.15266624024837D+03
 E2 =    -0.5401278685D+00 EUMP2 =    -0.15266624024837D+03
 E2 =    -0.5401145265D+00 EUMP2 =    -0.15266624021988D+03
 E2 =    -0.5401145265D+00 EUMP2 =    -0.15266624021988D+03
 E2 =    -0.5401395992D+00 EUMP2 =    -0.15266623981689D+03
 E2 =    -0.5401395992D+00 EUMP2 =    -0.15266623981689D+03
 E2 =    -0.5401354270D+00 EUMP2 =    -0.15266624049116D+03
 SCF Done:  E(RHF) =  -152.125980424     A.U. after    7 cycles
 E2 =    -0.5402417802D+00 EUMP2 =    -0.15266622220386D+03
 E2 =    -0.5402417802D+00 EUMP2 =    -0.15266622220386D+03
 SCF Done:  E(RHF) =  -152.126203040     A.U. after    7 cycles
 E2 =    -0.5400183205D+00 EUMP2 =    -0.15266622136023D+03
 E2 =    -0.5400183205D+00 EUMP2 =    -0.15266622136023D+03
 SCF Done:  E(RHF) =  -152.125406192     A.U. after    8 cycles
 E2 =    -0.5407431362D+00 EUMP2 =    -0.15266614932783D+03
 E2 =    -0.5407431362D+00 EUMP2 =    -0.15266614932783D+03
 SCF Done:  E(RHF) =  -152.126632514     A.U. after    8 cycles
 E2 =    -0.5395115418D+00 EUMP2 =    -0.15266614405555D+03
 E2 =    -0.5395115418D+00 EUMP2 =    -0.15266614405555D+03
 SCF Done:  E(RHF) =  -152.125501462     A.U. after    8 cycles
 E2 =    -0.5406418018D+00 EUMP2 =    -0.15266614326331D+03
 E2 =    -0.5406418018D+00 EUMP2 =    -0.15266614326331D+03
 SCF Done:  E(RHF) =  -152.126527818     A.U. after    8 cycles
 E2 =    -0.5396126986D+00 EUMP2 =    -0.15266614051685D+03
 E2 =    -0.5396126986D+00 EUMP2 =    -0.15266614051685D+03
 SCF Done:  E(RHF) =  -152.125751046     A.U. after    8 cycles
 E2 =    -0.5403869821D+00 EUMP2 =    -0.15266613802808D+03
 E2 =    -0.5403869821D+00 EUMP2 =    -0.15266613802808D+03
 SCF Done:  E(RHF) =  -152.126271148     A.U. after    8 cycles
 E2 =    -0.5398639817D+00 EUMP2 =    -0.15266613512956D+03
 E2 =    -0.5398639817D+00 EUMP2 =    -0.15266613512956D+03
 SCF Done:  E(RHF) =  -152.126011246     A.U. after    8 cycles
 E2 =    -0.5401242445D+00 EUMP2 =    -0.15266613549074D+03
 E2 =    -0.5401242445D+00 EUMP2 =    -0.15266613549074D+03
 SCF Done:  E(RHF) =  -152.126009725     A.U. after    8 cycles
 E2 =    -0.5401258504D+00 EUMP2 =    -0.15266613557562D+03
 E2 =    -0.5401258504D+00 EUMP2 =    -0.15266613557562D+03

 Alpha  occ. eigenvalues --  -20.59259 -20.53625  -1.37867  -1.32079  -0.74057
 Alpha  occ. eigenvalues --   -0.69294  -0.61385  -0.55878  -0.53073  -0.48104
 Alpha virt. eigenvalues --    0.02291   0.04560   0.04675   0.07635   0.12136
 Alpha virt. eigenvalues --    0.14242   0.16416   0.16967   0.17752   0.18656
 Alpha virt. eigenvalues --    0.21501   0.21839   0.23497   0.24345   0.27033

 Mulliken charges:
               1
     1  O   -0.494295
     2  H    0.287254
     3  H    0.194446
     4  O   -0.414772
     5  H    0.207326
     6  H    0.220040
 Sum of Mulliken charges =  -0.00000

 Dipole moment (field-independent basis, Debye):
    X=              2.5848    Y=             -0.0250    Z=              0.1406  Tot=              2.5888
 Quadrupole moment (field-independent basis, Debye-Ang):
   XX=            -11.5907   YY=            -12.2657   ZZ=            -13.1248
   XY=              0.2731   XZ=             -6.1650   YZ=              0.0445

  Exact polarizability:  21.553  -0.014  18.546  -0.681   0.064  18.240
 Approx polarizability:  14.360  -0.005  14.040  -0.883   0.030  14.191

                      1                      2                      3
                      A                      A                      A
 Frequencies --    128.0070               147.5812               154.7939
 Red. masses --      1.0710                 1.0320                 1.5518
 Frc consts  --      0.0103                 0.0132                 0.0219
 IR Inten    --    108.4674                60.9647               124.1688

                      4                      5                      6
                      A                      A                      A
 Frequencies --    183.6191               361.9676               629.8572
 Red. masses --      2.3705                 1.0929                 1.0408
 Frc consts  --      0.0471                 0.0844                 0.2433
 IR Inten    --    159.3511                49.8986                91.0683

                      7                      8                      9
                      A                      A                      A
 Frequencies --   1629.3041              1650.1132              3719.0643
 Red. masses --      1.0839                 1.0769                 1.0532
 Frc consts  --      1.6953                 1.7276                 8.5828
 IR Inten    --     87.7062                36.1561               294.6593

                     10                     11                     12
                      A                      A                      A
 Frequencies --   3813.6074              3915.0507              3934.9909
 Red. masses --      1.0448                 1.0742                 1.0817
 Frc consts  --      8.9531                 9.7006                 9.8681
 IR Inten    --     11.1934               115.2820                97.2169

 - Thermochemistry -
 -------------------
 Temperature   298.150 Kelvin.  Pressure   1.00000 Atm.
 Atom     1 has atomic number  8 and mass  15.99491

 Molecular mass:    36.02113 amu.
 Principal axes and moments of inertia in atomic units:
                           1         2         3
     Eigenvalues --     8.34645 281.19343 281.23915
           X            0.99938  -0.02733  -0.02218
           Y           -0.00185  -0.67001   0.74235
           Z            0.03516   0.74184   0.66965
 This molecule is an asymmetric top.
 Rotational symmetry number  1.
 Rotational temperatures (Kelvin)     10.37734     0.30802     0.30797
 Rotational constants (GHZ):         216.22871     6.41815     6.41711
 Zero-point vibrational energy     121229.3 (Joules/Mol)
                                   28.97450 (Kcal/Mol)
 Warning -- explicit consideration of   5 degrees of freedom as
           vibrations may cause significant error
 Vibrational temperatures:    184.17   212.34   222.71   264.19   520.79
          (Kelvin)            906.22  2344.21  2374.14  5350.90  5486.93
                             5632.88  5661.57

 Zero-point correction=                           0.046174 (Hartree/Particle)
 Thermal correction to Energy=                    0.052056
 Thermal correction to Enthalpy=                  0.053000
 Thermal correction to Gibbs Free Energy=         0.019788
 Sum of electronic and zero-point Energies=           -152.620066
 Sum of electronic and thermal Energies=              -152.614184
 Sum of electronic and thermal Enthalpies=            -152.613240
 Sum of electronic and thermal Free Energies=         -152.646453

                     E (Thermal)             CV                S
                      KCal/Mol        Cal/Mol-Kelvin    Cal/Mol-Kelvin
 Total                   32.666             16.163             69.902
 Electronic               0.000              0.000              0.000
 Translational            0.889              2.981             36.674
 Rotational               0.889              2.981             21.117
 Vibrational             30.888             10.201             12.110
 Vibration     1          0.611              1.925              2.976
 Vibration     2          0.617              1.905              2.703
 Vibration     3          0.620              1.897              2.612
 Vibration     4          0.631              1.862              2.291
 Vibration     5          0.736              1.551              1.114

 ## DEPERTURBED TRANSITIONS MOMENTS ##

 Electric dipole : Fundamental Bands
 ------------------------------------------------------------------------

 ## AFTER VARIATIONAL CORRECTION

 Electric dipole : Fundamental Bands
 ------------------------------------------------------------------------

                           ! Non-Optimized Parameters !
 Normal termination of Gaussian 16 at Tue Nov 30 12:42:43 2021.
