 Gaussian 16, Revision A.03,
 Gaussian 16:  ES64L-G16RevA.03 25-Dec-2016

 ----------------------------------------------
 # MP2/aug-cc-pVTZ opt freq=(vibrot,anharmonic)
 ----------------------------------------------

 ----
 bleh
 ----
 Symbolic Z-matrix:
 Charge =  0 Multiplicity = 1

 SCF Done:  E(RHF) =  -239.162910316     A.U. after   10 cycles
 E2 =    -0.7287117122D+00 EUMP2 =    -0.23989162202862D+03
 SCF Done:  E(RHF) =  -239.164459658     A.U. after    8 cycles
 E2 =    -0.7276594860D+00 EUMP2 =    -0.23989211914358D+03
 SCF Done:  E(RHF) =  -239.164600392     A.U. after    8 cycles
 E2 =    -0.7275465784D+00 EUMP2 =    -0.23989214697008D+03
 SCF Done:  E(RHF) =  -239.164676802     A.U. after    8 cycles
 E2 =    -0.7274757571D+00 EUMP2 =    -0.23989215255939D+03
 SCF Done:  E(RHF) =  -239.164689478     A.U. after    7 cycles
 E2 =    -0.7274643779D+00 EUMP2 =    -0.23989215385631D+03
 SCF Done:  E(RHF) =  -239.164750200     A.U. after    8 cycles
 E2 =    -0.7274067701D+00 EUMP2 =    -0.23989215696961D+03
 SCF Done:  E(RHF) =  -239.164771798     A.U. after    8 cycles
 E2 =    -0.7273856946D+00 EUMP2 =    -0.23989215749207D+03
 Optimization completed.
    -- Stationary point found.
 Normal termination of Gaussian 16 at Mon Dec 20 13:35:10 2021.

 ----------------------------------------------------------------------
 #N Geom=AllCheck Guess=TCheck SCRF=Check GenChk RMP2(FC)/Aug-CC-pVTZ F
 req
 ----------------------------------------------------------------------

 Structure from the checkpoint file:  "/gscratch/scrubbed/gds001/Gau-26133.chk"
 ----
 bleh
 ----
 Charge =  0 Multiplicity = 1

                         Standard orientation:
 ---------------------------------------------------------------------
 Center     Atomic      Atomic             Coordinates (Angstroms)
 Number     Number       Type             X           Y           Z
 ---------------------------------------------------------------------
      1          9           0        0.577472    0.685948    0.000072
      2          1           0       -1.109648    0.252908    0.000003
      3          9           0       -1.933834   -0.181134   -0.000080
      4          6           0        1.413206   -0.443581    0.000013
      5          1           0        0.785165   -1.329324   -0.000745
      6          1           0        2.025758   -0.403128    0.894734
      7          1           0        2.026745   -0.402294   -0.893993
 ---------------------------------------------------------------------

 SCF Done:  E(RHF) =  -239.164771797     A.U. after    1 cycles
 E2 =    -0.7273856928D+00 EUMP2 =    -0.23989215749029D+03
 E2 =    -0.7273856928D+00 EUMP2 =    -0.23989215749029D+03
 SCF Done:  E(RHF) =  -239.164771377     A.U. after    6 cycles
 E2 =    -0.7273861072D+00 EUMP2 =    -0.23989215748423D+03
 E2 =    -0.7273861072D+00 EUMP2 =    -0.23989215748423D+03
 SCF Done:  E(RHF) =  -239.164771381     A.U. after    6 cycles
 E2 =    -0.7273861001D+00 EUMP2 =    -0.23989215748085D+03
 E2 =    -0.7273861001D+00 EUMP2 =    -0.23989215748085D+03
 E2 =    -0.7273793824D+00 EUMP2 =    -0.23989215749809D+03
 E2 =    -0.7273793824D+00 EUMP2 =    -0.23989215749809D+03
 E2 =    -0.7273923553D+00 EUMP2 =    -0.23989215742622D+03
 E2 =    -0.7273923553D+00 EUMP2 =    -0.23989215742622D+03
 E2 =    -0.7273960977D+00 EUMP2 =    -0.23989215752881D+03
 E2 =    -0.7273960977D+00 EUMP2 =    -0.23989215752881D+03
 E2 =    -0.7273754445D+00 EUMP2 =    -0.23989215691287D+03
 SCF Done:  E(RHF) =  -239.164752846     A.U. after    7 cycles
 E2 =    -0.7273890201D+00 EUMP2 =    -0.23989214186605D+03
 E2 =    -0.7273890201D+00 EUMP2 =    -0.23989214186605D+03
 SCF Done:  E(RHF) =  -239.164755240     A.U. after    7 cycles
 E2 =    -0.7273863891D+00 EUMP2 =    -0.23989214162928D+03
 E2 =    -0.7273863891D+00 EUMP2 =    -0.23989214162928D+03
 SCF Done:  E(RHF) =  -239.164867372     A.U. after    8 cycles
 E2 =    -0.7272258333D+00 EUMP2 =    -0.23989209320556D+03
 E2 =    -0.7272258333D+00 EUMP2 =    -0.23989209320556D+03
 SCF Done:  E(RHF) =  -239.164542490     A.U. after    8 cycles
 E2 =    -0.7275491174D+00 EUMP2 =    -0.23989209160775D+03
 E2 =    -0.7275491174D+00 EUMP2 =    -0.23989209160775D+03
 SCF Done:  E(RHF) =  -239.164697937     A.U. after    7 cycles
 E2 =    -0.7273891856D+00 EUMP2 =    -0.23989208712219D+03
 E2 =    -0.7273891856D+00 EUMP2 =    -0.23989208712219D+03
 SCF Done:  E(RHF) =  -239.164704184     A.U. after    7 cycles
 E2 =    -0.7273839814D+00 EUMP2 =    -0.23989208816520D+03
 E2 =    -0.7273839814D+00 EUMP2 =    -0.23989208816520D+03
 SCF Done:  E(RHF) =  -239.164700929     A.U. after    7 cycles
 E2 =    -0.7273865527D+00 EUMP2 =    -0.23989208748123D+03
 E2 =    -0.7273865527D+00 EUMP2 =    -0.23989208748123D+03
 SCF Done:  E(RHF) =  -239.164700920     A.U. after    7 cycles
 E2 =    -0.7273865626D+00 EUMP2 =    -0.23989208748280D+03
 E2 =    -0.7273865626D+00 EUMP2 =    -0.23989208748280D+03
 SCF Done:  E(RHF) =  -239.164100971     A.U. after    8 cycles
 E2 =    -0.7279564190D+00 EUMP2 =    -0.23989205739004D+03
 E2 =    -0.7279564190D+00 EUMP2 =    -0.23989205739004D+03
 SCF Done:  E(RHF) =  -239.165237570     A.U. after    8 cycles
 E2 =    -0.7268132949D+00 EUMP2 =    -0.23989205086537D+03
 E2 =    -0.7268132949D+00 EUMP2 =    -0.23989205086537D+03

 Alpha  occ. eigenvalues --  -26.31571 -26.26677 -11.32953  -1.62185  -1.57251
 Alpha  occ. eigenvalues --   -0.98343  -0.76759  -0.72623  -0.71141  -0.69682
 Alpha  occ. eigenvalues --   -0.62169  -0.62165  -0.56434  -0.56383
 Alpha virt. eigenvalues --    0.02433   0.04113   0.04835   0.05980   0.09044
 Alpha virt. eigenvalues --    0.11589   0.12045   0.13295   0.16793   0.19020
 Alpha virt. eigenvalues --    0.20017   0.20298   0.20620   0.22702   0.24733

 Mulliken charges:
               1
     1  F   -0.400510
     2  H    0.394296
     3  F   -0.391491
     4  C   -0.633495
     5  H    0.372439
     6  H    0.329383
     7  H    0.329377
 Sum of Mulliken charges =  -0.00000

 Dipole moment (field-independent basis, Debye):
    X=              3.4186    Y=             -0.7803    Z=              0.0001  Tot=              3.5065
 Quadrupole moment (field-independent basis, Debye-Ang):
   XX=            -20.0033   YY=            -18.0995   ZZ=            -17.6824
   XY=             -2.3169   XZ=             -0.0003   YZ=             -0.0001

  Exact polarizability:  24.712  -0.463  21.302   0.000   0.000  20.245
 Approx polarizability:  17.698   0.127  16.914   0.000   0.000  16.186

                      1                      2                      3
                      A                      A                      A
 Frequencies --     37.9713                65.4834               199.9655
 Red. masses --      1.0893                 3.8784                 9.0933
 Frc consts  --      0.0009                 0.0098                 0.2142
 IR Inten    --      0.0688                 9.3924                15.6646

                      4                      5                      6
                      A                      A                      A
 Frequencies --    547.4414               620.0790              1030.2732
 Red. masses --      1.0386                 1.0406                 8.9787
 Frc consts  --      0.1834                 0.2357                 5.6152
 IR Inten    --    117.5461               160.9502               116.3385

                      7                      8                      9
                      A                      A                      A
 Frequencies --   1206.7673              1215.2143              1503.7185
 Red. masses --      1.2356                 1.2432                 1.1256
 Frc consts  --      1.0602                 1.0817                 1.4995
 IR Inten    --      1.1758                 1.3152                 0.8940

                     10                     11                     12
                      A                      A                      A
 Frequencies --   1525.3568              1526.4045              3103.4260
 Red. masses --      1.0532                 1.0510                 1.0263
 Frc consts  --      1.4437                 1.4427                 5.8236
 IR Inten    --      6.5740                 6.8463                22.6880

                     13                     14                     15
                      A                      A                      A
 Frequencies --   3214.8390              3218.5888              3910.3053
 Red. masses --      1.1095                 1.1095                 1.0591
 Frc consts  --      6.7563                 6.7720                 9.5416
 IR Inten    --      8.5063                10.8026               564.5497

 - Thermochemistry -
 -------------------
 Temperature   298.150 Kelvin.  Pressure   1.00000 Atm.
 Atom     1 has atomic number  9 and mass  18.99840

 Molecular mass:    54.02811 amu.
 Principal axes and moments of inertia in atomic units:
                           1         2         3
     Eigenvalues --    55.16471 402.75886 446.40838
           X            0.99920  -0.04010  -0.00003
           Y            0.04010   0.99920  -0.00008
           Z            0.00004   0.00008   1.00000
 This molecule is an asymmetric top.
 Rotational symmetry number  1.
 Rotational temperatures (Kelvin)      1.57010     0.21505     0.19402
 Rotational constants (GHZ):          32.71550     4.48095     4.04280
 Zero-point vibrational energy     137126.9 (Joules/Mol)
                                   32.77413 (Kcal/Mol)
 Warning -- explicit consideration of   5 degrees of freedom as
           vibrations may cause significant error
 Vibrational temperatures:     54.63    94.22   287.71   787.65   892.16
          (Kelvin)           1482.33  1736.27  1748.42  2163.52  2194.65
                             2196.16  4465.14  4625.44  4630.83  5626.06

 Zero-point correction=                           0.052229 (Hartree/Particle)
 Thermal correction to Energy=                    0.057704
 Thermal correction to Enthalpy=                  0.058649
 Thermal correction to Gibbs Free Energy=         0.023188
 Sum of electronic and zero-point Energies=           -239.839929
 Sum of electronic and thermal Energies=              -239.834453
 Sum of electronic and thermal Enthalpies=            -239.833509
 Sum of electronic and thermal Free Energies=         -239.868970

                     E (Thermal)             CV                S
                      KCal/Mol        Cal/Mol-Kelvin    Cal/Mol-Kelvin
 Total                   36.210             14.841             74.633
 Electronic               0.000              0.000              0.000
 Translational            0.889              2.981             37.883
 Rotational               0.889              2.981             23.810
 Vibrational             34.433              8.879             12.941
 Vibration     1          0.594              1.982              5.362
 Vibration     2          0.597              1.971              4.285
 Vibration     3          0.638              1.840              2.133
 Vibration     4          0.903              1.145              0.549
 Vibration     5          0.980              0.990              0.416

 ## DEPERTURBED TRANSITIONS MOMENTS ##

 Electric dipole : Fundamental Bands
 ------------------------------------------------------------------------

 ## AFTER VARIATIONAL CORRECTION

 Electric dipole : Fundamental Bands
 ------------------------------------------------------------------------

                           ! Non-Optimized Parameters !
 Normal termination of Gaussian 16 at Mon Dec 20 17:28:10 2021.
