 Gaussian 16, Revision A.03,
 Gaussian 16:  ES64L-G16RevA.03 25-Dec-2016

 ----------------------------------------------
 # mp2/aug-cc-pvdz opt freq=(vibrot,anharmonic)
 ----------------------------------------------

 ----
 bleh
 ----
 Symbolic Z-matrix:
 Charge =  0 Multiplicity = 1

 SCF Done:  E(RHF) =  -239.094492175     A.U. after   11 cycles
 E2 =    -0.5844346078D+00 EUMP2 =    -0.23967892678313D+03
 SCF Done:  E(RHF) =  -239.096325248     A.U. after   10 cycles
 E2 =    -0.5840238786D+00 EUMP2 =    -0.23968034912640D+03
 SCF Done:  E(RHF) =  -239.096709040     A.U. after   11 cycles
 E2 =    -0.5842899298D+00 EUMP2 =    -0.23968099896989D+03
 SCF Done:  E(RHF) =  -239.096733124     A.U. after   12 cycles
 E2 =    -0.5848955428D+00 EUMP2 =    -0.23968162866634D+03
 SCF Done:  E(RHF) =  -239.096380292     A.U. after   12 cycles
 E2 =    -0.5856407855D+00 EUMP2 =    -0.23968202107720D+03
 SCF Done:  E(RHF) =  -239.096501133     A.U. after   11 cycles
 E2 =    -0.5859836590D+00 EUMP2 =    -0.23968248479230D+03
 SCF Done:  E(RHF) =  -239.096930766     A.U. after   11 cycles
 E2 =    -0.5860123241D+00 EUMP2 =    -0.23968294309006D+03
 SCF Done:  E(RHF) =  -239.097084466     A.U. after    8 cycles
 E2 =    -0.5858918598D+00 EUMP2 =    -0.23968297632574D+03
 SCF Done:  E(RHF) =  -239.097304756     A.U. after   10 cycles
 E2 =    -0.5857138969D+00 EUMP2 =    -0.23968301865309D+03
 SCF Done:  E(RHF) =  -239.097245853     A.U. after    9 cycles
 E2 =    -0.5857831402D+00 EUMP2 =    -0.23968302899327D+03
 E2 =    -0.5860490207D+00 EUMP2 =    -0.23968304544536D+03
 E2 =    -0.5861518566D+00 EUMP2 =    -0.23968304839786D+03
 E2 =    -0.5862019745D+00 EUMP2 =    -0.23968305062828D+03
 E2 =    -0.5863278708D+00 EUMP2 =    -0.23968305186098D+03
 E2 =    -0.5863318886D+00 EUMP2 =    -0.23968305569215D+03
 E2 =    -0.5864587665D+00 EUMP2 =    -0.23968306985635D+03
 E2 =    -0.5864856081D+00 EUMP2 =    -0.23968308521444D+03
 E2 =    -0.5863103050D+00 EUMP2 =    -0.23968310011281D+03
 E2 =    -0.5862370673D+00 EUMP2 =    -0.23968310305888D+03
 E2 =    -0.5861330736D+00 EUMP2 =    -0.23968310809997D+03
 Optimization completed.
    -- Stationary point found.
 Normal termination of Gaussian 16 at Wed Nov 24 22:19:59 2021.

 ----------------------------------------------------------------------
 #N Geom=AllCheck Guess=TCheck SCRF=Check GenChk RMP2(FC)/Aug-CC-pVDZ F
 req
 ----------------------------------------------------------------------

 Structure from the checkpoint file:  "/gscratch/scrubbed/gds001/Gau-19895.chk"
 ----
 bleh
 ----
 Charge =  0 Multiplicity = 1

                         Standard orientation:
 ---------------------------------------------------------------------
 Center     Atomic      Atomic             Coordinates (Angstroms)
 Number     Number       Type             X           Y           Z
 ---------------------------------------------------------------------
      1          9           0        0.580913    0.706809   -0.000000
      2          1           0       -1.102234    0.265916    0.000010
      3          9           0       -1.921480   -0.184581   -0.000001
      4          6           0        1.399761   -0.462006   -0.000000
      5          1           0        0.736299   -1.335546   -0.000819
      6          1           0        2.015651   -0.429606    0.906427
      7          1           0        2.016815   -0.428786   -0.905604
 ---------------------------------------------------------------------

 SCF Done:  E(RHF) =  -239.096933910     A.U. after    8 cycles
 E2 =    -0.5861604698D+00 EUMP2 =    -0.23968309438014D+03
 E2 =    -0.5861604698D+00 EUMP2 =    -0.23968309438014D+03
 SCF Done:  E(RHF) =  -239.096933907     A.U. after    7 cycles
 E2 =    -0.5861604707D+00 EUMP2 =    -0.23968309437784D+03
 E2 =    -0.5861604707D+00 EUMP2 =    -0.23968309437784D+03
 SCF Done:  E(RHF) =  -239.097151714     A.U. after    8 cycles
 E2 =    -0.5858916978D+00 EUMP2 =    -0.23968304341219D+03
 E2 =    -0.5858916978D+00 EUMP2 =    -0.23968304341219D+03
 SCF Done:  E(RHF) =  -239.096618843     A.U. after    8 cycles
 E2 =    -0.5864260354D+00 EUMP2 =    -0.23968304487819D+03
 E2 =    -0.5864260354D+00 EUMP2 =    -0.23968304487819D+03
 SCF Done:  E(RHF) =  -239.096885547     A.U. after    8 cycles
 E2 =    -0.5861538727D+00 EUMP2 =    -0.23968303941970D+03
 E2 =    -0.5861538727D+00 EUMP2 =    -0.23968303941970D+03
 SCF Done:  E(RHF) =  -239.096875971     A.U. after    8 cycles
 E2 =    -0.5861623610D+00 EUMP2 =    -0.23968303833242D+03
 E2 =    -0.5861623610D+00 EUMP2 =    -0.23968303833242D+03
 SCF Done:  E(RHF) =  -239.096880641     A.U. after    8 cycles
 E2 =    -0.5861580994D+00 EUMP2 =    -0.23968303874030D+03
 E2 =    -0.5861580994D+00 EUMP2 =    -0.23968303874030D+03
 SCF Done:  E(RHF) =  -239.096880649     A.U. after    8 cycles
 E2 =    -0.5861580890D+00 EUMP2 =    -0.23968303873824D+03
 E2 =    -0.5861580890D+00 EUMP2 =    -0.23968303873824D+03
 SCF Done:  E(RHF) =  -239.096249089     A.U. after    9 cycles
 E2 =    -0.5867627279D+00 EUMP2 =    -0.23968301181679D+03
 E2 =    -0.5867627279D+00 EUMP2 =    -0.23968301181679D+03
 SCF Done:  E(RHF) =  -239.097454193     A.U. after    9 cycles
 E2 =    -0.5855522180D+00 EUMP2 =    -0.23968300641144D+03
 E2 =    -0.5855522180D+00 EUMP2 =    -0.23968300641144D+03

 Alpha  occ. eigenvalues --  -26.32603 -26.27822 -11.34499  -1.61846  -1.57559
 Alpha  occ. eigenvalues --   -0.98148  -0.76640  -0.71972  -0.70547  -0.69118
 Alpha  occ. eigenvalues --   -0.62129  -0.62117  -0.56475  -0.56408
 Alpha virt. eigenvalues --    0.02974   0.05139   0.05968   0.06966   0.10512
 Alpha virt. eigenvalues --    0.13673   0.14160   0.16257   0.22379   0.24342
 Alpha virt. eigenvalues --    0.25303   0.25551   0.25616   0.28782   0.30629

 Mulliken charges:
               1
     1  F   -0.498995
     2  H    0.305543
     3  F   -0.314532
     4  C    0.822486
     5  H   -0.145075
     6  H   -0.084665
     7  H   -0.084761
 Sum of Mulliken charges =  -0.00000

 Dipole moment (field-independent basis, Debye):
    X=              3.4121    Y=             -0.8501    Z=              0.0000  Tot=              3.5164
 Quadrupole moment (field-independent basis, Debye-Ang):
   XX=            -20.1871   YY=            -18.3005   ZZ=            -17.8841
   XY=             -2.4491   XZ=             -0.0000   YZ=              0.0000

  Exact polarizability:  24.735  -0.360  21.156  -0.000  -0.000  19.868
 Approx polarizability:  17.784   0.181  16.907  -0.000  -0.000  15.990

                      1                      2                      3
                      A                      A                      A
 Frequencies --     21.7237                80.2050               207.7510
 Red. masses --      1.0844                 3.9207                 9.0051
 Frc consts  --      0.0003                 0.0149                 0.2290
 IR Inten    --      0.0631                10.2538                17.0973

                      4                      5                      6
                      A                      A                      A
 Frequencies --    545.2913               637.6224               991.8774
 Red. masses --      1.0388                 1.0410                 9.2726
 Frc consts  --      0.1820                 0.2493                 5.3749
 IR Inten    --    119.6732               168.2125               114.5113

                      7                      8                      9
                      A                      A                      A
 Frequencies --   1181.5882              1190.2247              1469.5151
 Red. masses --      1.2297                 1.2379                 1.1212
 Frc consts  --      1.0116                 1.0332                 1.4265
 IR Inten    --      1.2173                 1.1792                 0.7171

                     10                     11                     12
                      A                      A                      A
 Frequencies --   1488.1644              1489.0370              3106.6202
 Red. masses --      1.0520                 1.0546                 1.0258
 Frc consts  --      1.3726                 1.3777                 5.8332
 IR Inten    --      6.1796                 5.9082                23.3781

                     13                     14                     15
                      A                      A                      A
 Frequencies --   3229.5686              3232.7519              3850.8773
 Red. masses --      1.1102                 1.1102                 1.0591
 Frc consts  --      6.8222                 6.8356                 9.2532
 IR Inten    --      8.8932                12.0346               562.1735

 - Thermochemistry -
 -------------------
 Temperature   298.150 Kelvin.  Pressure   1.00000 Atm.
 Atom     1 has atomic number  9 and mass  18.99840

 Molecular mass:    54.02811 amu.
 Principal axes and moments of inertia in atomic units:
                           1         2         3
     Eigenvalues --    58.27536 397.79580 444.25397
           X            0.99913  -0.04181  -0.00000
           Y            0.04181   0.99913   0.00000
           Z            0.00000  -0.00000   1.00000
 This molecule is an asymmetric top.
 Rotational symmetry number  1.
 Rotational temperatures (Kelvin)      1.48629     0.21773     0.19496
 Rotational constants (GHZ):          30.96920     4.53685     4.06241
 Zero-point vibrational energy     135912.6 (Joules/Mol)
                                   32.48390 (Kcal/Mol)
 Warning -- explicit consideration of   4 degrees of freedom as
           vibrations may cause significant error
 Vibrational temperatures:     31.26   115.40   298.91   784.55   917.40
          (Kelvin)           1427.09  1700.04  1712.47  2114.30  2141.14
                             2142.39  4469.73  4646.63  4651.21  5540.55

 Zero-point correction=                           0.051766 (Hartree/Particle)
 Thermal correction to Energy=                    0.057239
 Thermal correction to Enthalpy=                  0.058183
 Thermal correction to Gibbs Free Energy=         0.022399
 Sum of electronic and zero-point Energies=           -239.631343
 Sum of electronic and thermal Energies=              -239.625870
 Sum of electronic and thermal Enthalpies=            -239.624926
 Sum of electronic and thermal Free Energies=         -239.660711

                     E (Thermal)             CV                S
                      KCal/Mol        Cal/Mol-Kelvin    Cal/Mol-Kelvin
 Total                   35.918             14.896             75.315
 Electronic               0.000              0.000              0.000
 Translational            0.889              2.981             37.883
 Rotational               0.889              2.981             23.847
 Vibrational             34.140              8.934             13.585
 Vibration     1          0.593              1.985              6.470
 Vibration     2          0.600              1.963              3.886
 Vibration     3          0.641              1.829              2.063
 Vibration     4          0.900              1.150              0.554

 ## DEPERTURBED TRANSITIONS MOMENTS ##

 Electric dipole : Fundamental Bands
 ------------------------------------------------------------------------

 ## AFTER VARIATIONAL CORRECTION

 Electric dipole : Fundamental Bands
 ------------------------------------------------------------------------

 Optimization completed.
    -- Stationary point found.
 Normal termination of Gaussian 16 at Wed Nov 24 22:43:14 2021.
