 Gaussian 16, Revision A.03,
 Gaussian 16:  ES64L-G16RevA.03 25-Dec-2016

 ----------------------------------------------
 # mp2/aug-cc-pVTZ opt freq=(vibrot,anharmonic)
 ----------------------------------------------

 ----------
 FH --- OH2
 ----------
 Symbolic Z-matrix:
 Charge =  0 Multiplicity = 1

 SCF Done:  E(RHF) =  -176.131652477     A.U. after   10 cycles
 E2 =    -0.5524521461D+00 EUMP2 =    -0.17668410462360D+03
 SCF Done:  E(RHF) =  -176.132172348     A.U. after    8 cycles
 E2 =    -0.5519796555D+00 EUMP2 =    -0.17668415200336D+03
 SCF Done:  E(RHF) =  -176.132221403     A.U. after    7 cycles
 E2 =    -0.5519325783D+00 EUMP2 =    -0.17668415398141D+03
 SCF Done:  E(RHF) =  -176.132222330     A.U. after    7 cycles
 E2 =    -0.5519323555D+00 EUMP2 =    -0.17668415468507D+03
 SCF Done:  E(RHF) =  -176.132200845     A.U. after    7 cycles
 E2 =    -0.5519543968D+00 EUMP2 =    -0.17668415524212D+03
 Optimization completed.
    -- Stationary point found.
 Normal termination of Gaussian 16 at Fri Jun 25 15:10:23 2021.

 ----------------------------------------------------------------------
 #N Geom=AllCheck Guess=TCheck SCRF=Check GenChk RMP2(FC)/Aug-CC-pVTZ F
 req
 ----------------------------------------------------------------------

 Structure from the checkpoint file:  "hf_h2o_mp2_avtz_opt_anharm.chk"
 ----------
 FH --- OH2
 ----------
 Charge =  0 Multiplicity = 1

                         Standard orientation:
 ---------------------------------------------------------------------
 Center     Atomic      Atomic             Coordinates (Angstroms)
 Number     Number       Type             X           Y           Z
 ---------------------------------------------------------------------
      1          8           0        1.234078   -0.000019   -0.094647
      2          1           0        1.628914    0.764276    0.336906
      3          1           0        1.629161   -0.764156    0.336958
      4          1           0       -0.469219    0.000246   -0.049208
      5          9           0       -1.406831   -0.000024    0.014724
 ---------------------------------------------------------------------

 SCF Done:  E(RHF) =  -176.132200845     A.U. after    1 cycles
 E2 =    -0.5519543971D+00 EUMP2 =    -0.17668415524245D+03
 E2 =    -0.5519543971D+00 EUMP2 =    -0.17668415524245D+03
 SCF Done:  E(RHF) =  -176.132221686     A.U. after    8 cycles
 E2 =    -0.5519336126D+00 EUMP2 =    -0.17668415529894D+03
 E2 =    -0.5519336126D+00 EUMP2 =    -0.17668415529894D+03
 SCF Done:  E(RHF) =  -176.132177799     A.U. after    8 cycles
 E2 =    -0.5519766921D+00 EUMP2 =    -0.17668415449091D+03
 E2 =    -0.5519766921D+00 EUMP2 =    -0.17668415449091D+03
 SCF Done:  E(RHF) =  -176.132198360     A.U. after    8 cycles
 E2 =    -0.5519564733D+00 EUMP2 =    -0.17668415483277D+03
 E2 =    -0.5519564733D+00 EUMP2 =    -0.17668415483277D+03
 SCF Done:  E(RHF) =  -176.132198261     A.U. after    8 cycles
 E2 =    -0.5519565593D+00 EUMP2 =    -0.17668415482070D+03
 E2 =    -0.5519565593D+00 EUMP2 =    -0.17668415482070D+03
 E2 =    -0.5519606373D+00 EUMP2 =    -0.17668415414701D+03
 E2 =    -0.5519606373D+00 EUMP2 =    -0.17668415414701D+03
 E2 =    -0.5519520383D+00 EUMP2 =    -0.17668415535343D+03
 E2 =    -0.5519520383D+00 EUMP2 =    -0.17668415535343D+03
 E2 =    -0.5519849029D+00 EUMP2 =    -0.17668415139624D+03
 SCF Done:  E(RHF) =  -176.132192790     A.U. after    7 cycles
 E2 =    -0.5519572905D+00 EUMP2 =    -0.17668415008089D+03
 E2 =    -0.5519572905D+00 EUMP2 =    -0.17668415008089D+03
 SCF Done:  E(RHF) =  -176.132193392     A.U. after    7 cycles
 E2 =    -0.5519572988D+00 EUMP2 =    -0.17668415069080D+03
 E2 =    -0.5519572988D+00 EUMP2 =    -0.17668415069080D+03
 SCF Done:  E(RHF) =  -176.132095287     A.U. after    7 cycles
 E2 =    -0.5520442476D+00 EUMP2 =    -0.17668413953498D+03
 E2 =    -0.5520442476D+00 EUMP2 =    -0.17668413953498D+03
 SCF Done:  E(RHF) =  -176.132261987     A.U. after    7 cycles
 E2 =    -0.5518730151D+00 EUMP2 =    -0.17668413500245D+03
 E2 =    -0.5518730151D+00 EUMP2 =    -0.17668413500245D+03
 SCF Done:  E(RHF) =  -176.131464444     A.U. after    8 cycles
 E2 =    -0.5526009385D+00 EUMP2 =    -0.17668406538217D+03
 E2 =    -0.5526009385D+00 EUMP2 =    -0.17668406538217D+03
 SCF Done:  E(RHF) =  -176.132753336     A.U. after    8 cycles
 E2 =    -0.5513050581D+00 EUMP2 =    -0.17668405839401D+03
 E2 =    -0.5513050581D+00 EUMP2 =    -0.17668405839401D+03
 SCF Done:  E(RHF) =  -176.131627440     A.U. after    8 cycles
 E2 =    -0.5524327419D+00 EUMP2 =    -0.17668406018188D+03
 E2 =    -0.5524327419D+00 EUMP2 =    -0.17668406018188D+03
 SCF Done:  E(RHF) =  -176.132574651     A.U. after    8 cycles
 E2 =    -0.5514789988D+00 EUMP2 =    -0.17668405364954D+03
 E2 =    -0.5514789988D+00 EUMP2 =    -0.17668405364954D+03
 SCF Done:  E(RHF) =  -176.132096964     A.U. after    8 cycles
 E2 =    -0.5519537587D+00 EUMP2 =    -0.17668405072238D+03
 E2 =    -0.5519537587D+00 EUMP2 =    -0.17668405072238D+03
 SCF Done:  E(RHF) =  -176.132096844     A.U. after    8 cycles
 E2 =    -0.5519538909D+00 EUMP2 =    -0.17668405073462D+03
 E2 =    -0.5519538909D+00 EUMP2 =    -0.17668405073462D+03

 Alpha  occ. eigenvalues --  -26.24691 -20.61537  -1.55010  -1.40197  -0.76442
 Alpha  occ. eigenvalues --   -0.73689  -0.62941  -0.60235  -0.60217  -0.55885
 Alpha virt. eigenvalues --    0.01777   0.04111   0.06681   0.11626   0.13926
 Alpha virt. eigenvalues --    0.16681   0.16788   0.19491   0.21915   0.22674
 Alpha virt. eigenvalues --    0.22709   0.24856   0.28207   0.28261   0.30392

 Mulliken charges:
               1
     1  O   -0.343744
     2  H    0.203845
     3  H    0.218093
     4  H    0.295475
     5  F   -0.373669
 Sum of Mulliken charges =  -0.00000

 Dipole moment (field-independent basis, Debye):
    X=              3.9805    Y=             -0.0160    Z=              1.2654  Tot=              4.1768
 Quadrupole moment (field-independent basis, Debye-Ang):
   XX=            -12.1516   YY=            -10.1806   ZZ=            -12.9182
   XY=             -0.0381   XZ=              2.5888   YZ=             -0.0171

  Exact polarizability:  17.666  -0.050  13.938   0.268  -0.046  13.280
 Approx polarizability:  11.742  -0.039  11.081   0.442  -0.043   9.997

                      1                      2                      3
                      A                      A                      A
 Frequencies --    226.2207               247.7258               269.2344
 Red. masses --      2.1079                 1.0557                 1.8820
 Frc consts  --      0.0636                 0.0382                 0.0804
 IR Inten    --     33.1216                 0.0041               164.2957

                      4                      5                      6
                      A                      A                      A
 Frequencies --    725.4283               847.4815              1630.8833
 Red. masses --      1.0498                 1.0411                 1.0837
 Frc consts  --      0.3255                 0.4405                 1.6983
 IR Inten    --    155.2661               119.3154                73.7962

                      7                      8                      9
                      A                      A                      A
 Frequencies --   3716.1281              3814.2902              3932.4160
 Red. masses --      1.0600                 1.0450                 1.0821
 Frc consts  --      8.6250                 8.9580                 9.8588
 IR Inten    --    959.0798                10.2351               116.3826

 - Thermochemistry -
 -------------------
 Temperature   298.150 Kelvin.  Pressure   1.00000 Atm.
 Atom     1 has atomic number  8 and mass  15.99491

 Molecular mass:    38.01679 amu.
 Principal axes and moments of inertia in atomic units:
                           1         2         3
     Eigenvalues --     5.44484 240.83760 243.80042
           X            0.99984  -0.00000   0.01796
           Y            0.00000   1.00000  -0.00001
           Z           -0.01796   0.00001   0.99984
 This molecule is an asymmetric top.
 Rotational symmetry number  1.
 Rotational temperatures (Kelvin)     15.90752     0.35964     0.35527
 Rotational constants (GHZ):         331.45900     7.49360     7.40254
 Zero-point vibrational energy      92171.1 (Joules/Mol)
                                   22.02943 (Kcal/Mol)
 Warning -- explicit consideration of   3 degrees of freedom as
           vibrations may cause significant error
 Vibrational temperatures:    325.48   356.42   387.37  1043.73  1219.34
          (Kelvin)           2346.48  5346.68  5487.91  5657.87

 Zero-point correction=                           0.035106 (Hartree/Particle)
 Thermal correction to Energy=                    0.039581
 Thermal correction to Enthalpy=                  0.040525
 Thermal correction to Gibbs Free Energy=         0.010618
 Sum of electronic and zero-point Energies=           -176.649049
 Sum of electronic and thermal Energies=              -176.644575
 Sum of electronic and thermal Enthalpies=            -176.643630
 Sum of electronic and thermal Free Energies=         -176.673537

                     E (Thermal)             CV                S
                      KCal/Mol        Cal/Mol-Kelvin    Cal/Mol-Kelvin
 Total                   24.837             12.663             62.945
 Electronic               0.000              0.000              0.000
 Translational            0.889              2.981             36.835
 Rotational               0.889              2.981             20.397
 Vibrational             23.060              6.701              5.713
 Vibration     1          0.650              1.801              1.909
 Vibration     2          0.661              1.767              1.747
 Vibration     3          0.674              1.730              1.601

 ## DEPERTURBED TRANSITIONS MOMENTS ##

 Electric dipole : Fundamental Bands
 ------------------------------------------------------------------------

 ## AFTER VARIATIONAL CORRECTION

 Electric dipole : Fundamental Bands
 ------------------------------------------------------------------------

                           ! Non-Optimized Parameters !
 Normal termination of Gaussian 16 at Fri Jun 25 15:48:56 2021.
