 Gaussian 16, Revision A.03,
 Gaussian 16:  ES64L-G16RevA.03 25-Dec-2016

 ----------------------------------------------
 # mp2/aug-cc-pVTZ opt freq=(vibrot,anharmonic)
 ----------------------------------------------

 ---------
 HF --- FH
 ---------
 Symbolic Z-matrix:
 Charge =  0 Multiplicity = 1

 SCF Done:  E(RHF) =  -200.127009139     A.U. after   10 cycles
 E2 =    -0.5622560320D+00 EUMP2 =    -0.20068926517093D+03
 SCF Done:  E(RHF) =  -200.127328615     A.U. after    8 cycles
 E2 =    -0.5619536866D+00 EUMP2 =    -0.20068928230202D+03
 SCF Done:  E(RHF) =  -200.127416351     A.U. after    9 cycles
 E2 =    -0.5618537388D+00 EUMP2 =    -0.20068927009016D+03
 SCF Done:  E(RHF) =  -200.127333633     A.U. after    9 cycles
 E2 =    -0.5619506828D+00 EUMP2 =    -0.20068928431567D+03
 Optimization completed.
    -- Stationary point found.
 Normal termination of Gaussian 16 at Fri Jun 25 15:08:43 2021.

 ----------------------------------------------------------------------
 #N Geom=AllCheck Guess=TCheck SCRF=Check GenChk RMP2(FC)/Aug-CC-pVTZ F
 req
 ----------------------------------------------------------------------

 Structure from the checkpoint file:  "hf_hf_mp2_avtz_opt_anharm.chk"
 ---------
 HF --- FH
 ---------
 Charge =  0 Multiplicity = 1

                         Standard orientation:
 ---------------------------------------------------------------------
 Center     Atomic      Atomic             Coordinates (Angstroms)
 Number     Number       Type             X           Y           Z
 ---------------------------------------------------------------------
      1          9           0        0.038036    1.436012    0.000000
      2          9           0        0.038036   -1.311869    0.000000
      3          1           0        0.145371    0.514205    0.000000
      4          1           0       -0.830016   -1.631492    0.000000
 ---------------------------------------------------------------------

 SCF Done:  E(RHF) =  -200.127333633     A.U. after    1 cycles
 E2 =    -0.5619506831D+00 EUMP2 =    -0.20068928431600D+03
 E2 =    -0.5619506831D+00 EUMP2 =    -0.20068928431600D+03
 SCF Done:  E(RHF) =  -200.127323234     A.U. after    7 cycles
 E2 =    -0.5619608855D+00 EUMP2 =    -0.20068928411953D+03
 E2 =    -0.5619608855D+00 EUMP2 =    -0.20068928411953D+03
 SCF Done:  E(RHF) =  -200.127343160     A.U. after    7 cycles
 E2 =    -0.5619410104D+00 EUMP2 =    -0.20068928417043D+03
 E2 =    -0.5619410104D+00 EUMP2 =    -0.20068928417043D+03
 SCF Done:  E(RHF) =  -200.127328106     A.U. after    8 cycles
 E2 =    -0.5619549321D+00 EUMP2 =    -0.20068928303808D+03
 E2 =    -0.5619549321D+00 EUMP2 =    -0.20068928303808D+03
 SCF Done:  E(RHF) =  -200.127332983     A.U. after    8 cycles
 E2 =    -0.5619519459D+00 EUMP2 =    -0.20068928492936D+03
 E2 =    -0.5619519459D+00 EUMP2 =    -0.20068928492936D+03
 SCF Done:  E(RHF) =  -200.127329092     A.U. after    8 cycles
 E2 =    -0.5619536982D+00 EUMP2 =    -0.20068928279072D+03
 E2 =    -0.5619536982D+00 EUMP2 =    -0.20068928279072D+03
 SCF Done:  E(RHF) =  -200.127329092     A.U. after    8 cycles
 E2 =    -0.5619536982D+00 EUMP2 =    -0.20068928279072D+03
 E2 =    -0.5619536982D+00 EUMP2 =    -0.20068928279072D+03
 SCF Done:  E(RHF) =  -200.127354399     A.U. after    8 cycles
 E2 =    -0.5619288109D+00 EUMP2 =    -0.20068928320950D+03
 E2 =    -0.5619288109D+00 EUMP2 =    -0.20068928320950D+03
 SCF Done:  E(RHF) =  -200.127302235     A.U. after    8 cycles
 E2 =    -0.5619786220D+00 EUMP2 =    -0.20068928085676D+03
 E2 =    -0.5619786220D+00 EUMP2 =    -0.20068928085676D+03
 SCF Done:  E(RHF) =  -200.127876300     A.U. after    8 cycles
 E2 =    -0.5612985604D+00 EUMP2 =    -0.20068917486064D+03
 E2 =    -0.5612985604D+00 EUMP2 =    -0.20068917486064D+03
 SCF Done:  E(RHF) =  -200.126577357     A.U. after    8 cycles
 E2 =    -0.5626014121D+00 EUMP2 =    -0.20068917876949D+03
 E2 =    -0.5626014121D+00 EUMP2 =    -0.20068917876949D+03
 SCF Done:  E(RHF) =  -200.127656297     A.U. after    8 cycles
 E2 =    -0.5615140440D+00 EUMP2 =    -0.20068917034061D+03
 E2 =    -0.5615140440D+00 EUMP2 =    -0.20068917034061D+03
 SCF Done:  E(RHF) =  -200.126787232     A.U. after    8 cycles
 E2 =    -0.5623859894D+00 EUMP2 =    -0.20068917322163D+03
 E2 =    -0.5623859894D+00 EUMP2 =    -0.20068917322163D+03

 Alpha  occ. eigenvalues --  -26.34400 -26.27295  -1.64377  -1.57614  -0.81238
 Alpha  occ. eigenvalues --   -0.75325  -0.69443  -0.68602  -0.62613  -0.62601
 Alpha virt. eigenvalues --    0.01935   0.06223   0.12849   0.15616   0.16731
 Alpha virt. eigenvalues --    0.18458   0.21420   0.23771   0.24868   0.25838
 Alpha virt. eigenvalues --    0.27271   0.29783   0.34442   0.36211   0.40324

 Mulliken charges:
               1
     1  F   -0.382079
     2  F   -0.374464
     3  H    0.382458
     4  H    0.374085
 Sum of Mulliken charges =   0.00000

 Dipole moment (field-independent basis, Debye):
    X=             -1.5613    Y=             -2.9230    Z=             -0.0000  Tot=              3.3138
 Quadrupole moment (field-independent basis, Debye-Ang):
   XX=             -9.5629   YY=            -12.3192   ZZ=            -11.7906
   XY=              3.1548   XZ=             -0.0000   YZ=              0.0000

  Exact polarizability:  10.758   0.492  12.825   0.000  -0.000   9.614
 Approx polarizability:   8.318   0.347   8.753  -0.000   0.000   7.044

                      1                      2                      3
                     A'                     A'                     A"
 Frequencies --    159.2312               221.2269               474.8925
 Red. masses --      4.2801                 1.2442                 1.0400
 Frc consts  --      0.0639                 0.0359                 0.1382
 IR Inten    --      5.2416               158.3165               173.5258

                      4                      5                      6
                     A'                     A'                     A'
 Frequencies --    581.0114              3987.8743              4080.1883
 Red. masses --      1.0494                 1.0585                 1.0580
 Frc consts  --      0.2087                 9.9183                10.3777
 IR Inten    --    150.3282               470.6396               137.1128

 - Thermochemistry -
 -------------------
 Temperature   298.150 Kelvin.  Pressure   1.00000 Atm.
 Atom     1 has atomic number  9 and mass  18.99840

 Molecular mass:    40.01246 amu.
 Principal axes and moments of inertia in atomic units:
                           1         2         3
     Eigenvalues --     2.59147 267.16991 269.76137
           X            0.02034   0.99979   0.00000
           Y            0.99979  -0.02034   0.00000
           Z            0.00000  -0.00000   1.00000
 This molecule is an asymmetric top.
 Rotational symmetry number  1.
 Rotational temperatures (Kelvin)     33.42274     0.32419     0.32108
 Rotational constants (GHZ):         696.41687     6.75503     6.69014
 Zero-point vibrational energy      56849.1 (Joules/Mol)
                                   13.58726 (Kcal/Mol)
 Warning -- explicit consideration of   4 degrees of freedom as
           vibrations may cause significant error
 Vibrational temperatures:    229.10   318.30   683.26   835.95  5737.66
          (Kelvin)           5870.48

 Zero-point correction=                           0.021653 (Hartree/Particle)
 Thermal correction to Energy=                    0.026055
 Thermal correction to Enthalpy=                  0.026999
 Thermal correction to Gibbs Free Energy=        -0.002728
 Sum of electronic and zero-point Energies=           -200.667632
 Sum of electronic and thermal Energies=              -200.663229
 Sum of electronic and thermal Enthalpies=            -200.662285
 Sum of electronic and thermal Free Energies=         -200.692012

                     E (Thermal)             CV                S
                      KCal/Mol        Cal/Mol-Kelvin    Cal/Mol-Kelvin
 Total                   16.350             12.041             62.566
 Electronic               0.000              0.000              0.000
 Translational            0.889              2.981             36.988
 Rotational               0.889              2.981             19.863
 Vibrational             14.572              6.079              5.715
 Vibration     1          0.621              1.892              2.559
 Vibration     2          0.648              1.809              1.949
 Vibration     3          0.832              1.306              0.724
 Vibration     4          0.938              1.072              0.483

 ## DEPERTURBED TRANSITIONS MOMENTS ##

 Electric dipole : Fundamental Bands
 ------------------------------------------------------------------------

 ## AFTER VARIATIONAL CORRECTION

 Electric dipole : Fundamental Bands
 ------------------------------------------------------------------------

                           ! Non-Optimized Parameters !
 Normal termination of Gaussian 16 at Fri Jun 25 15:25:32 2021.
