 Gaussian 16, Revision A.03,
 Gaussian 16:  ES64L-G16RevA.03 25-Dec-2016

 ------------------------------------------------------
 # MP2/aug-cc-pVDZ Opt=(Tight) Freq=(vibrot,anharmonic)
 ------------------------------------------------------

 ------
 hf_h2o
 ------
 Symbolic Z-matrix:
 Charge =  0 Multiplicity = 1

 SCF Done:  E(RHF) =  -176.085232374     A.U. after   11 cycles
 E2 =    -0.4458748195D+00 EUMP2 =    -0.17653110719330D+03
 Optimization completed.
    -- Stationary point found.
 Normal termination of Gaussian 16 at Tue Sep  8 11:27:39 2020.

 ----------------------------------------------------------------------
 #N Geom=AllCheck Guess=TCheck SCRF=Check GenChk RMP2(FC)/Aug-CC-pVDZ F
 req
 ----------------------------------------------------------------------

 Structure from the checkpoint file:  "hf_h2o.chk"
 ------
 hf_h2o
 ------
 Charge =  0 Multiplicity = 1

                         Standard orientation:
 ---------------------------------------------------------------------
 Center     Atomic      Atomic             Coordinates (Angstroms)
 Number     Number       Type             X           Y           Z
 ---------------------------------------------------------------------
      1          8           0        1.241132   -0.000002   -0.096430
      2          1           0        1.635523    0.765382    0.343215
      3          1           0        1.635569   -0.765350    0.343233
      4          1           0       -0.473439   -0.000032   -0.047926
      5          9           0       -1.414079    0.000001    0.014768
 ---------------------------------------------------------------------

 SCF Done:  E(RHF) =  -176.085232374     A.U. after    1 cycles
 E2 =    -0.4458748198D+00 EUMP2 =    -0.17653110719352D+03
 E2 =    -0.4458748198D+00 EUMP2 =    -0.17653110719352D+03
 SCF Done:  E(RHF) =  -176.085250865     A.U. after    8 cycles
 E2 =    -0.4458559540D+00 EUMP2 =    -0.17653110681930D+03
 E2 =    -0.4458559540D+00 EUMP2 =    -0.17653110681930D+03
 SCF Done:  E(RHF) =  -176.085212282     A.U. after    8 cycles
 E2 =    -0.4458945324D+00 EUMP2 =    -0.17653110681449D+03
 E2 =    -0.4458945324D+00 EUMP2 =    -0.17653110681449D+03
 SCF Done:  E(RHF) =  -176.085229628     A.U. after    8 cycles
 E2 =    -0.4458771184D+00 EUMP2 =    -0.17653110674613D+03
 E2 =    -0.4458771184D+00 EUMP2 =    -0.17653110674613D+03
 SCF Done:  E(RHF) =  -176.085229634     A.U. after    8 cycles
 E2 =    -0.4458771205D+00 EUMP2 =    -0.17653110675407D+03
 E2 =    -0.4458771205D+00 EUMP2 =    -0.17653110675407D+03
 SCF Done:  E(RHF) =  -176.085221884     A.U. after    8 cycles
 E2 =    -0.4458847792D+00 EUMP2 =    -0.17653110666286D+03
 E2 =    -0.4458847792D+00 EUMP2 =    -0.17653110666286D+03
 SCF Done:  E(RHF) =  -176.085236992     A.U. after    8 cycles
 E2 =    -0.4458696801D+00 EUMP2 =    -0.17653110667165D+03
 E2 =    -0.4458696801D+00 EUMP2 =    -0.17653110667165D+03
 SCF Done:  E(RHF) =  -176.085198025     A.U. after    8 cycles
 E2 =    -0.4459055554D+00 EUMP2 =    -0.17653110358081D+03
 E2 =    -0.4459055554D+00 EUMP2 =    -0.17653110358081D+03
 SCF Done:  E(RHF) =  -176.085253157     A.U. after    8 cycles
 E2 =    -0.4458504382D+00 EUMP2 =    -0.17653110359534D+03
 E2 =    -0.4458504382D+00 EUMP2 =    -0.17653110359534D+03
 SCF Done:  E(RHF) =  -176.085224534     A.U. after    8 cycles
 E2 =    -0.4458778009D+00 EUMP2 =    -0.17653110233506D+03
 E2 =    -0.4458778009D+00 EUMP2 =    -0.17653110233506D+03
 SCF Done:  E(RHF) =  -176.085224509     A.U. after    8 cycles
 E2 =    -0.4458777949D+00 EUMP2 =    -0.17653110230386D+03
 E2 =    -0.4458777949D+00 EUMP2 =    -0.17653110230386D+03
 SCF Done:  E(RHF) =  -176.085128225     A.U. after    8 cycles
 E2 =    -0.4459610569D+00 EUMP2 =    -0.17653108928215D+03
 E2 =    -0.4459610569D+00 EUMP2 =    -0.17653108928215D+03
 SCF Done:  E(RHF) =  -176.085292173     A.U. after    8 cycles
 E2 =    -0.4457971783D+00 EUMP2 =    -0.17653108935130D+03
 E2 =    -0.4457971783D+00 EUMP2 =    -0.17653108935130D+03
 SCF Done:  E(RHF) =  -176.084477949     A.U. after    9 cycles
 E2 =    -0.4465408663D+00 EUMP2 =    -0.17653101881493D+03
 E2 =    -0.4465408663D+00 EUMP2 =    -0.17653101881493D+03
 SCF Done:  E(RHF) =  -176.085807657     A.U. after    9 cycles
 E2 =    -0.4452059554D+00 EUMP2 =    -0.17653101361240D+03
 E2 =    -0.4452059554D+00 EUMP2 =    -0.17653101361240D+03
 SCF Done:  E(RHF) =  -176.084579841     A.U. after    9 cycles
 E2 =    -0.4464315932D+00 EUMP2 =    -0.17653101143407D+03
 E2 =    -0.4464315932D+00 EUMP2 =    -0.17653101143407D+03
 SCF Done:  E(RHF) =  -176.085687311     A.U. after    9 cycles
 E2 =    -0.4453209052D+00 EUMP2 =    -0.17653100821600D+03
 E2 =    -0.4453209052D+00 EUMP2 =    -0.17653100821600D+03
 SCF Done:  E(RHF) =  -176.085129157     A.U. after    8 cycles
 E2 =    -0.4458740615D+00 EUMP2 =    -0.17653100321873D+03
 E2 =    -0.4458740615D+00 EUMP2 =    -0.17653100321873D+03
 SCF Done:  E(RHF) =  -176.085129103     A.U. after    8 cycles
 E2 =    -0.4458741580D+00 EUMP2 =    -0.17653100326141D+03
 E2 =    -0.4458741580D+00 EUMP2 =    -0.17653100326141D+03

 Alpha  occ. eigenvalues --  -26.25948 -20.62621  -1.55441  -1.40284  -0.76216
 Alpha  occ. eigenvalues --   -0.73755  -0.63025  -0.60291  -0.60280  -0.55776
 Alpha virt. eigenvalues --    0.02250   0.04969   0.07807   0.15135   0.18428
 Alpha virt. eigenvalues --    0.21176   0.21468   0.24854   0.27746   0.29361
 Alpha virt. eigenvalues --    0.29683   0.32425   0.33816   0.36744   0.39331

 Mulliken charges:
               1
     1  O   -0.311991
     2  H    0.145417
     3  H    0.162636
     4  H    0.353409
     5  F   -0.349471
 Sum of Mulliken charges =  -0.00000

 Dipole moment (field-independent basis, Debye):
    X=              3.9772    Y=             -0.0158    Z=              1.2953  Tot=              4.1828
 Quadrupole moment (field-independent basis, Debye-Ang):
   XX=            -12.3036   YY=            -10.3259   ZZ=            -13.0405
   XY=             -0.0367   XZ=              2.6500   YZ=             -0.0175

  Exact polarizability:  17.462  -0.051  13.374   0.253  -0.047  12.560
 Approx polarizability:  11.634  -0.039  10.740   0.439  -0.043   9.571

                      1                      2                      3
                      A                      A                      A
 Frequencies --    236.1326               256.8598               278.7615
 Red. masses --      2.8519                 1.0550                 1.5265
 Frc consts  --      0.0937                 0.0410                 0.0699
 IR Inten    --     13.5576                 0.0004               181.1981

                      4                      5                      6
                      A                      A                      A
 Frequencies --    730.2264               849.3167              1626.5519
 Red. masses --      1.0505                 1.0410                 1.0824
 Frc consts  --      0.3300                 0.4424                 1.6873
 IR Inten    --    159.5785               121.0107                70.1704

                      7                      8                      9
                      A                      A                      A
 Frequencies --   3668.5061              3795.6805              3921.8458
 Red. masses --      1.0599                 1.0455                 1.0816
 Frc consts  --      8.4044                 8.8749                 9.8012
 IR Inten    --    938.2148                 8.5788               105.5218

 - Thermochemistry -
 -------------------
 Temperature   298.150 Kelvin.  Pressure   1.00000 Atm.
 Atom     1 has atomic number  8 and mass  15.99491

 Molecular mass:    38.01679 amu.
 Principal axes and moments of inertia in atomic units:
                           1         2         3
     Eigenvalues --     5.50326 243.42517 246.35490
           X            0.99984   0.00000   0.01816
           Y           -0.00000   1.00000  -0.00000
           Z           -0.01816   0.00000   0.99984
 This molecule is an asymmetric top.
 Rotational symmetry number  1.
 Rotational temperatures (Kelvin)     15.73867     0.35581     0.35158
 Rotational constants (GHZ):         327.94060     7.41395     7.32578
 Zero-point vibrational energy      91896.4 (Joules/Mol)
                                   21.96377 (Kcal/Mol)
 Warning -- explicit consideration of   3 degrees of freedom as
           vibrations may cause significant error
 Vibrational temperatures:    339.74   369.56   401.08  1050.63  1221.98
          (Kelvin)           2340.25  5278.16  5461.14  5642.66

 Zero-point correction=                           0.035001 (Hartree/Particle)
 Thermal correction to Energy=                    0.039434
 Thermal correction to Enthalpy=                  0.040378
 Thermal correction to Gibbs Free Energy=         0.010554
 Sum of electronic and zero-point Energies=           -176.496106
 Sum of electronic and thermal Energies=              -176.491673
 Sum of electronic and thermal Enthalpies=            -176.490729
 Sum of electronic and thermal Free Energies=         -176.520553

                     E (Thermal)             CV                S
                      KCal/Mol        Cal/Mol-Kelvin    Cal/Mol-Kelvin
 Total                   24.745             12.604             62.770
 Electronic               0.000              0.000              0.000
 Translational            0.889              2.981             36.835
 Rotational               0.889              2.981             20.429
 Vibrational             22.968              6.643              5.506
 Vibration     1          0.655              1.785              1.832
 Vibration     2          0.666              1.751              1.683
 Vibration     3          0.679              1.713              1.541

 ## DEPERTURBED TRANSITIONS MOMENTS ##

 Electric dipole : Fundamental Bands
 ------------------------------------------------------------------------

 ## AFTER VARIATIONAL CORRECTION

 Electric dipole : Fundamental Bands
 ------------------------------------------------------------------------

 Optimization completed.
    -- Stationary point found.
 Normal termination of Gaussian 16 at Tue Sep  8 11:32:17 2020.
