 Gaussian 16, Revision A.03,
 Gaussian 16:  ES64L-G16RevA.03 25-Dec-2016

 ----------------------------------------------
 # mp2/aug-cc-pVDZ opt freq=(vibrot,anharmonic)
 ----------------------------------------------

 ----
 bleh
 ----
 Symbolic Z-matrix:
 Charge =  0 Multiplicity = 1

 SCF Done:  E(RHF) =  -200.072397335     A.U. after   10 cycles
 E2 =    -0.4466599914D+00 EUMP2 =    -0.20051905732672D+03
 SCF Done:  E(RHF) =  -200.072102902     A.U. after    8 cycles
 E2 =    -0.4469710452D+00 EUMP2 =    -0.20051907394691D+03
 SCF Done:  E(RHF) =  -200.072013026     A.U. after    9 cycles
 E2 =    -0.4470524174D+00 EUMP2 =    -0.20051906544347D+03
 SCF Done:  E(RHF) =  -200.072088974     A.U. after    9 cycles
 E2 =    -0.4469861894D+00 EUMP2 =    -0.20051907516296D+03
 Optimization completed.
    -- Stationary point found.
 Normal termination of Gaussian 16 at Fri Nov 26 10:02:28 2021.

 ----------------------------------------------------------------------
 #N Geom=AllCheck Guess=TCheck SCRF=Check GenChk RMP2(FC)/Aug-CC-pVDZ F
 req
 ----------------------------------------------------------------------

 Structure from the checkpoint file:  "/gscratch/scrubbed/gds001/Gau-30622.chk"
 ----
 bleh
 ----
 Charge =  0 Multiplicity = 1

                         Standard orientation:
 ---------------------------------------------------------------------
 Center     Atomic      Atomic             Coordinates (Angstroms)
 Number     Number       Type             X           Y           Z
 ---------------------------------------------------------------------
      1          9           0        0.038247    1.438659    0.000000
      2          9           0        0.038247   -1.313987    0.000000
      3          1           0        0.143496    0.513526    0.000000
      4          1           0       -0.831946   -1.635580    0.000000
 ---------------------------------------------------------------------

 SCF Done:  E(RHF) =  -200.072088974     A.U. after    1 cycles
 E2 =    -0.4469861896D+00 EUMP2 =    -0.20051907516309D+03
 E2 =    -0.4469861896D+00 EUMP2 =    -0.20051907516309D+03
 SCF Done:  E(RHF) =  -200.072079243     A.U. after    7 cycles
 E2 =    -0.4469957437D+00 EUMP2 =    -0.20051907498635D+03
 E2 =    -0.4469957437D+00 EUMP2 =    -0.20051907498635D+03
 SCF Done:  E(RHF) =  -200.072097338     A.U. after    7 cycles
 E2 =    -0.4469776651D+00 EUMP2 =    -0.20051907500356D+03
 E2 =    -0.4469776651D+00 EUMP2 =    -0.20051907500356D+03
 SCF Done:  E(RHF) =  -200.072085688     A.U. after    8 cycles
 E2 =    -0.4469892983D+00 EUMP2 =    -0.20051907498594D+03
 E2 =    -0.4469892983D+00 EUMP2 =    -0.20051907498594D+03
 SCF Done:  E(RHF) =  -200.072086206     A.U. after    8 cycles
 E2 =    -0.4469885139D+00 EUMP2 =    -0.20051907471990D+03
 E2 =    -0.4469885139D+00 EUMP2 =    -0.20051907471990D+03
 SCF Done:  E(RHF) =  -200.072084226     A.U. after    8 cycles
 E2 =    -0.4469894400D+00 EUMP2 =    -0.20051907366634D+03
 E2 =    -0.4469894400D+00 EUMP2 =    -0.20051907366634D+03
 SCF Done:  E(RHF) =  -200.072084226     A.U. after    8 cycles
 E2 =    -0.4469894400D+00 EUMP2 =    -0.20051907366634D+03
 E2 =    -0.4469894400D+00 EUMP2 =    -0.20051907366634D+03
 SCF Done:  E(RHF) =  -200.072107487     A.U. after    8 cycles
 E2 =    -0.4469653713D+00 EUMP2 =    -0.20051907285804D+03
 E2 =    -0.4469653713D+00 EUMP2 =    -0.20051907285804D+03
 SCF Done:  E(RHF) =  -200.072059490     A.U. after    8 cycles
 E2 =    -0.4470134982D+00 EUMP2 =    -0.20051907298786D+03
 E2 =    -0.4470134982D+00 EUMP2 =    -0.20051907298786D+03
 SCF Done:  E(RHF) =  -200.072661960     A.U. after    9 cycles
 E2 =    -0.4463054644D+00 EUMP2 =    -0.20051896742448D+03
 E2 =    -0.4463054644D+00 EUMP2 =    -0.20051896742448D+03
 SCF Done:  E(RHF) =  -200.071307475     A.U. after    9 cycles
 E2 =    -0.4476655818D+00 EUMP2 =    -0.20051897305661D+03
 E2 =    -0.4476655818D+00 EUMP2 =    -0.20051897305661D+03
 SCF Done:  E(RHF) =  -200.072462770     A.U. after    9 cycles
 E2 =    -0.4464990973D+00 EUMP2 =    -0.20051896186736D+03
 E2 =    -0.4464990973D+00 EUMP2 =    -0.20051896186736D+03
 SCF Done:  E(RHF) =  -200.071496001     A.U. after    9 cycles
 E2 =    -0.4474719039D+00 EUMP2 =    -0.20051896790520D+03
 E2 =    -0.4474719039D+00 EUMP2 =    -0.20051896790520D+03

 Alpha  occ. eigenvalues --  -26.35614 -26.28471  -1.64784  -1.57979  -0.81397
 Alpha  occ. eigenvalues --   -0.75437  -0.69443  -0.68653  -0.62609  -0.62595
 Alpha virt. eigenvalues --    0.02365   0.07237   0.17464   0.20551   0.20581
 Alpha virt. eigenvalues --    0.23612   0.27223   0.28838   0.30195   0.30918
 Alpha virt. eigenvalues --    0.37205   0.38142   0.39894   0.47876   0.49312

 Mulliken charges:
               1
     1  F   -0.313873
     2  F   -0.301428
     3  H    0.290058
     4  H    0.325243
 Sum of Mulliken charges =  -0.00000

 Dipole moment (field-independent basis, Debye):
    X=             -1.5741    Y=             -2.9358    Z=              0.0000  Tot=              3.3312
 Quadrupole moment (field-independent basis, Debye-Ang):
   XX=             -9.6713   YY=            -12.4441   ZZ=            -11.8971
   XY=              3.1666   XZ=             -0.0000   YZ=              0.0000

  Exact polarizability:  10.066   0.525  12.445   0.000  -0.000   8.666
 Approx polarizability:   7.894   0.360   8.564  -0.000  -0.000   6.473

                      1                      2                      3
                     A'                     A'                     A"
 Frequencies --    157.6351               213.5710               470.5709
 Red. masses --      3.1886                 1.3794                 1.0399
 Frc consts  --      0.0467                 0.0371                 0.1357
 IR Inten    --     13.3834               147.2834               175.5782

                      4                      5                      6
                     A'                     A'                     A'
 Frequencies --    575.4006              3939.6611              4038.9633
 Red. masses --      1.0509                 1.0584                 1.0580
 Frc consts  --      0.2050                 9.6791                10.1691
 IR Inten    --    153.0818               463.5002               136.1794

 - Thermochemistry -
 -------------------
 Temperature   298.150 Kelvin.  Pressure   1.00000 Atm.
 Atom     1 has atomic number  9 and mass  18.99840

 Molecular mass:    40.01246 amu.
 Principal axes and moments of inertia in atomic units:
                           1         2         3
     Eigenvalues --     2.60217 268.10844 270.71061
           X            0.02035   0.99979   0.00000
           Y            0.99979  -0.02035   0.00000
           Z            0.00000  -0.00000   1.00000
 This molecule is an asymmetric top.
 Rotational symmetry number  1.
 Rotational temperatures (Kelvin)     33.28528     0.32306     0.31995
 Rotational constants (GHZ):         693.55263     6.73139     6.66668
 Zero-point vibrational energy      56199.4 (Joules/Mol)
                                   13.43197 (Kcal/Mol)
 Warning -- explicit consideration of   4 degrees of freedom as
           vibrations may cause significant error
 Vibrational temperatures:    226.80   307.28   677.05   827.87  5668.29
          (Kelvin)           5811.17

 Zero-point correction=                           0.021405 (Hartree/Particle)
 Thermal correction to Energy=                    0.025829
 Thermal correction to Enthalpy=                  0.026773
 Thermal correction to Gibbs Free Energy=        -0.003010
 Sum of electronic and zero-point Energies=           -200.497670
 Sum of electronic and thermal Energies=              -200.493247
 Sum of electronic and thermal Enthalpies=            -200.492302
 Sum of electronic and thermal Free Energies=         -200.522085

                     E (Thermal)             CV                S
                      KCal/Mol        Cal/Mol-Kelvin    Cal/Mol-Kelvin
 Total                   16.208             12.076             62.682
 Electronic               0.000              0.000              0.000
 Translational            0.889              2.981             36.988
 Rotational               0.889              2.981             19.874
 Vibrational             14.430              6.114              5.821
 Vibration     1          0.621              1.894              2.578
 Vibration     2          0.644              1.820              2.013
 Vibration     3          0.828              1.315              0.736
 Vibration     4          0.932              1.084              0.494

 ## DEPERTURBED TRANSITIONS MOMENTS ##

 Electric dipole : Fundamental Bands
 ------------------------------------------------------------------------

 ## AFTER VARIATIONAL CORRECTION

 Electric dipole : Fundamental Bands
 ------------------------------------------------------------------------

 Optimization completed.
    -- Stationary point found.
 Normal termination of Gaussian 16 at Fri Nov 26 10:05:08 2021.
