 Gaussian 16, Revision A.03,
 Gaussian 16:  ES64L-G16RevA.03 25-Dec-2016

 ----------------------------------------------
 # mp2/aug-cc-pVDZ opt freq=(vibrot,anharmonic)
 ----------------------------------------------

 ------
 hf_nh3
 ------
 Symbolic Z-matrix:
 Charge =  0 Multiplicity = 1

 SCF Done:  E(RHF) =  -156.244504314     A.U. after   11 cycles
 E2 =    -0.4308800684D+00 EUMP2 =    -0.15667538438281D+03
 SCF Done:  E(RHF) =  -156.251884955     A.U. after   10 cycles
 E2 =    -0.4274560112D+00 EUMP2 =    -0.15667934096644D+03
 SCF Done:  E(RHF) =  -156.252922978     A.U. after    9 cycles
 E2 =    -0.4271188346D+00 EUMP2 =    -0.15668004181211D+03
 SCF Done:  E(RHF) =  -156.253433933     A.U. after   10 cycles
 E2 =    -0.4270461470D+00 EUMP2 =    -0.15668048008013D+03
 SCF Done:  E(RHF) =  -156.253531340     A.U. after   10 cycles
 E2 =    -0.4273185195D+00 EUMP2 =    -0.15668084985959D+03
 SCF Done:  E(RHF) =  -156.253754662     A.U. after   10 cycles
 E2 =    -0.4274043274D+00 EUMP2 =    -0.15668115898919D+03
 SCF Done:  E(RHF) =  -156.253753206     A.U. after   10 cycles
 E2 =    -0.4276895641D+00 EUMP2 =    -0.15668144277031D+03
 SCF Done:  E(RHF) =  -156.253767092     A.U. after    9 cycles
 E2 =    -0.4278290095D+00 EUMP2 =    -0.15668159610203D+03
 SCF Done:  E(RHF) =  -156.253817445     A.U. after    9 cycles
 E2 =    -0.4278160338D+00 EUMP2 =    -0.15668163347900D+03
 SCF Done:  E(RHF) =  -156.253842094     A.U. after    7 cycles
 E2 =    -0.4277929801D+00 EUMP2 =    -0.15668163507410D+03
 E2 =    -0.4277977048D+00 EUMP2 =    -0.15668163612000D+03
 E2 =    -0.4278264662D+00 EUMP2 =    -0.15668163700080D+03
 E2 =    -0.4278385922D+00 EUMP2 =    -0.15668163719699D+03
 E2 =    -0.4278451645D+00 EUMP2 =    -0.15668163734267D+03
 E2 =    -0.4278437413D+00 EUMP2 =    -0.15668163744825D+03
 Optimization completed.
    -- Stationary point found.
 Normal termination of Gaussian 16 at Wed Nov 24 12:03:42 2021.

 ----------------------------------------------------------------------
 #N Geom=AllCheck Guess=TCheck SCRF=Check GenChk RMP2(FC)/Aug-CC-pVDZ F
 req
 ----------------------------------------------------------------------

 Structure from the checkpoint file:  "/gscratch/scrubbed/gds001/Gau-27566.chk"
 ------
 hf_nh3
 ------
 Charge =  0 Multiplicity = 1

                         Standard orientation:
 ---------------------------------------------------------------------
 Center     Atomic      Atomic             Coordinates (Angstroms)
 Number     Number       Type             X           Y           Z
 ---------------------------------------------------------------------
      1          7           0        1.218983   -0.000021   -0.000031
      2          1           0        1.602464   -0.929760   -0.169412
      3          1           0        1.602640    0.611829   -0.720198
      4          1           0        1.601855    0.318067    0.890144
      5          9           0       -1.429972   -0.000006    0.000008
      6          1           0       -0.470090    0.000069   -0.000385
 ---------------------------------------------------------------------

 E2 =    -0.4278437421D+00 EUMP2 =    -0.15668163744903D+03
 E2 =    -0.4278437421D+00 EUMP2 =    -0.15668163744903D+03
 E2 =    -0.4278451023D+00 EUMP2 =    -0.15668163702931D+03
 E2 =    -0.4278451023D+00 EUMP2 =    -0.15668163702931D+03
 E2 =    -0.4278453789D+00 EUMP2 =    -0.15668163687638D+03
 SCF Done:  E(RHF) =  -156.253772541     A.U. after    7 cycles
 E2 =    -0.4278468742D+00 EUMP2 =    -0.15668161941544D+03
 E2 =    -0.4278468742D+00 EUMP2 =    -0.15668161941544D+03
 SCF Done:  E(RHF) =  -156.253771820     A.U. after    7 cycles
 E2 =    -0.4278469743D+00 EUMP2 =    -0.15668161879460D+03
 E2 =    -0.4278469743D+00 EUMP2 =    -0.15668161879460D+03
 SCF Done:  E(RHF) =  -156.253112173     A.U. after    9 cycles
 E2 =    -0.4284525438D+00 EUMP2 =    -0.15668156471636D+03
 E2 =    -0.4284525438D+00 EUMP2 =    -0.15668156471636D+03
 SCF Done:  E(RHF) =  -156.254335159     A.U. after    9 cycles
 E2 =    -0.4272292814D+00 EUMP2 =    -0.15668156444070D+03
 E2 =    -0.4272292814D+00 EUMP2 =    -0.15668156444070D+03
 SCF Done:  E(RHF) =  -156.253295066     A.U. after    8 cycles
 E2 =    -0.4282606093D+00 EUMP2 =    -0.15668155567564D+03
 E2 =    -0.4282606093D+00 EUMP2 =    -0.15668155567564D+03
 SCF Done:  E(RHF) =  -156.254126051     A.U. after    8 cycles
 E2 =    -0.4274291793D+00 EUMP2 =    -0.15668155523058D+03
 E2 =    -0.4274291793D+00 EUMP2 =    -0.15668155523058D+03
 SCF Done:  E(RHF) =  -156.253705118     A.U. after    8 cycles
 E2 =    -0.4278431934D+00 EUMP2 =    -0.15668154831087D+03
 E2 =    -0.4278431934D+00 EUMP2 =    -0.15668154831087D+03
 SCF Done:  E(RHF) =  -156.253704834     A.U. after    8 cycles
 E2 =    -0.4278433621D+00 EUMP2 =    -0.15668154819633D+03
 E2 =    -0.4278433621D+00 EUMP2 =    -0.15668154819633D+03
 SCF Done:  E(RHF) =  -156.253705726     A.U. after    8 cycles
 E2 =    -0.4278434341D+00 EUMP2 =    -0.15668154916041D+03
 E2 =    -0.4278434341D+00 EUMP2 =    -0.15668154916041D+03
 SCF Done:  E(RHF) =  -156.253704211     A.U. after    8 cycles
 E2 =    -0.4278431217D+00 EUMP2 =    -0.15668154733246D+03
 E2 =    -0.4278431217D+00 EUMP2 =    -0.15668154733246D+03

 Alpha  occ. eigenvalues --  -26.23606 -15.59987  -1.52930  -1.19106  -0.71044
 Alpha  occ. eigenvalues --   -0.67432  -0.67068  -0.58083  -0.58082  -0.48542
 Alpha virt. eigenvalues --    0.02368   0.05135   0.05137   0.08208   0.15925
 Alpha virt. eigenvalues --    0.17911   0.18510   0.18510   0.25679   0.25838
 Alpha virt. eigenvalues --    0.28001   0.28033   0.30014   0.33265   0.34939

 Mulliken charges:
               1
     1  N   -0.154401
     2  H    0.033769
     3  H    0.052633
     4  H    0.053982
     5  F   -0.416273
     6  H    0.430290
 Sum of Mulliken charges =  -0.00000

 Dipole moment (field-independent basis, Debye):
    X=              4.6652    Y=              0.0068    Z=              0.0018  Tot=              4.6652
 Quadrupole moment (field-independent basis, Debye-Ang):
   XX=            -13.8683   YY=            -12.2122   ZZ=            -12.1865
   XY=              0.0171   XZ=              0.0042   YZ=             -0.0040

  Exact polarizability:  23.629   0.054  16.250   0.014  -0.018  16.367
 Approx polarizability:  15.547   0.042  13.369   0.010  -0.015  13.465

                      1                      2                      3
                      A                      A                      A
 Frequencies --    270.6721               270.8608               275.4001
 Red. masses --      1.1008                 1.1008                 5.3710
 Frc consts  --      0.0475                 0.0476                 0.2400
 IR Inten    --     10.5400                10.5340                 8.9601

                      4                      5                      6
                      A                      A                      A
 Frequencies --    990.8063               990.8254              1149.5955
 Red. masses --      1.0501                 1.0501                 1.1908
 Frc consts  --      0.6074                 0.6074                 0.9272
 IR Inten    --    107.5799               107.5697               142.1336

                      7                      8                      9
                      A                      A                      A
 Frequencies --   1647.3838              1647.4646              3283.0155
 Red. masses --      1.0600                 1.0600                 1.0636
 Frc consts  --      1.6950                 1.6951                 6.7544
 IR Inten    --     16.2010                16.2006              1590.0587

                     10                     11                     12
                      A                      A                      A
 Frequencies --   3483.3043              3632.8208              3632.9665
 Red. masses --      1.0281                 1.0891                 1.0891
 Frc consts  --      7.3499                 8.4688                 8.4696
 IR Inten    --      3.4453                18.9456                18.9618

 - Thermochemistry -
 -------------------
 Temperature   298.150 Kelvin.  Pressure   1.00000 Atm.
 Atom     1 has atomic number  7 and mass  14.00307

 Molecular mass:    37.03278 amu.
 Principal axes and moments of inertia in atomic units:
                           1         2         3
     Eigenvalues --     9.64425 243.20954 243.21030
           X            1.00000   0.00000   0.00001
           Y           -0.00000   1.00000  -0.00001
           Z           -0.00001   0.00001   1.00000
 This molecule is an asymmetric top.
 Rotational symmetry number  1.
 Rotational temperatures (Kelvin)      8.98089     0.35613     0.35613
 Rotational constants (GHZ):         187.13138     7.42052     7.42050
 Zero-point vibrational energy     127253.5 (Joules/Mol)
                                   30.41430 (Kcal/Mol)
 Warning -- explicit consideration of   3 degrees of freedom as
           vibrations may cause significant error
 Vibrational temperatures:    389.44   389.71   396.24  1425.55  1425.58
          (Kelvin)           1654.01  2370.22  2370.33  4723.53  5011.70
                             5226.82  5227.03

 Zero-point correction=                           0.048468 (Hartree/Particle)
 Thermal correction to Energy=                    0.052771
 Thermal correction to Enthalpy=                  0.053715
 Thermal correction to Gibbs Free Energy=         0.023909
 Sum of electronic and zero-point Energies=           -156.633169
 Sum of electronic and thermal Energies=              -156.628867
 Sum of electronic and thermal Enthalpies=            -156.627922
 Sum of electronic and thermal Free Energies=         -156.657728

                     E (Thermal)             CV                S
                      KCal/Mol        Cal/Mol-Kelvin    Cal/Mol-Kelvin
 Total                   33.114             12.238             62.732
 Electronic               0.000              0.000              0.000
 Translational            0.889              2.981             36.757
 Rotational               0.889              2.981             20.972
 Vibrational             31.337              6.277              5.002
 Vibration     1          0.674              1.727              1.592
 Vibration     2          0.675              1.727              1.591
 Vibration     3          0.677              1.719              1.562

 ## DEPERTURBED TRANSITIONS MOMENTS ##

 Electric dipole : Fundamental Bands
 ------------------------------------------------------------------------

 ## AFTER VARIATIONAL CORRECTION

 Electric dipole : Fundamental Bands
 ------------------------------------------------------------------------

 Optimization completed.
    -- Stationary point found.
 Normal termination of Gaussian 16 at Wed Nov 24 12:11:31 2021.
