 Gaussian 16, Revision A.03,
 Gaussian 16:  ES64L-G16RevA.03 25-Dec-2016

 ----------------------------------------------
 # MP2/aug-cc-pVTZ opt freq=(vibrot,anharmonic)
 ----------------------------------------------

 ----
 bleh
 ----
 Symbolic Z-matrix:
 Charge =  0 Multiplicity = 1

 SCF Done:  E(RHF) =  -156.295622291     A.U. after   10 cycles
 E2 =    -0.5262669457D+00 EUMP2 =    -0.15682188923681D+03
 SCF Done:  E(RHF) =  -156.296330498     A.U. after    8 cycles
 E2 =    -0.5256940789D+00 EUMP2 =    -0.15682202457695D+03
 SCF Done:  E(RHF) =  -156.296370188     A.U. after    7 cycles
 E2 =    -0.5256627388D+00 EUMP2 =    -0.15682203292638D+03
 SCF Done:  E(RHF) =  -156.296365962     A.U. after    7 cycles
 E2 =    -0.5256708038D+00 EUMP2 =    -0.15682203676586D+03
 Optimization completed.
    -- Stationary point found.
 Normal termination of Gaussian 16 at Mon Dec 20 13:23:17 2021.

 ----------------------------------------------------------------------
 #N Geom=AllCheck Guess=TCheck SCRF=Check GenChk RMP2(FC)/Aug-CC-pVTZ F
 req
 ----------------------------------------------------------------------

 Structure from the checkpoint file:  "/gscratch/scrubbed/gds001/Gau-186285.chk"
 ----
 bleh
 ----
 Charge =  0 Multiplicity = 1

                         Standard orientation:
 ---------------------------------------------------------------------
 Center     Atomic      Atomic             Coordinates (Angstroms)
 Number     Number       Type             X           Y           Z
 ---------------------------------------------------------------------
      1          7           0       -1.214899    0.000002   -0.000003
      2          1           0       -1.586746    0.441252    0.831899
      3          1           0       -1.586801    0.500101   -0.797887
      4          1           0       -1.587391   -0.940797   -0.033957
      5          9           0        1.422208    0.000068    0.000002
      6          1           0        0.465364   -0.001180   -0.000054
 ---------------------------------------------------------------------

 SCF Done:  E(RHF) =  -156.296365962     A.U. after    1 cycles
 E2 =    -0.5256708070D+00 EUMP2 =    -0.15682203676908D+03
 E2 =    -0.5256708070D+00 EUMP2 =    -0.15682203676908D+03
 SCF Done:  E(RHF) =  -156.296364200     A.U. after    7 cycles
 E2 =    -0.5256720886D+00 EUMP2 =    -0.15682203628871D+03
 E2 =    -0.5256720886D+00 EUMP2 =    -0.15682203628871D+03
 SCF Done:  E(RHF) =  -156.296364165     A.U. after    7 cycles
 E2 =    -0.5256721227D+00 EUMP2 =    -0.15682203628721D+03
 E2 =    -0.5256721227D+00 EUMP2 =    -0.15682203628721D+03
 SCF Done:  E(RHF) =  -156.296363789     A.U. after    7 cycles
 E2 =    -0.5256724122D+00 EUMP2 =    -0.15682203620152D+03
 E2 =    -0.5256724122D+00 EUMP2 =    -0.15682203620152D+03
 SCF Done:  E(RHF) =  -156.296364575     A.U. after    7 cycles
 E2 =    -0.5256717996D+00 EUMP2 =    -0.15682203637494D+03
 E2 =    -0.5256717996D+00 EUMP2 =    -0.15682203637494D+03
 SCF Done:  E(RHF) =  -156.296393881     A.U. after    6 cycles
 E2 =    -0.5256420758D+00 EUMP2 =    -0.15682203595724D+03
 E2 =    -0.5256420758D+00 EUMP2 =    -0.15682203595724D+03
 E2 =    -0.5256996135D+00 EUMP2 =    -0.15682203655383D+03
 E2 =    -0.5256996135D+00 EUMP2 =    -0.15682203655383D+03
 E2 =    -0.5256736918D+00 EUMP2 =    -0.15682203013555D+03
 E2 =    -0.5256736918D+00 EUMP2 =    -0.15682203013555D+03
 SCF Done:  E(RHF) =  -156.296344229     A.U. after    6 cycles
 E2 =    -0.5256740084D+00 EUMP2 =    -0.15682201823718D+03
 E2 =    -0.5256740084D+00 EUMP2 =    -0.15682201823718D+03
 SCF Done:  E(RHF) =  -156.296343652     A.U. after    6 cycles
 E2 =    -0.5256740097D+00 EUMP2 =    -0.15682201766129D+03
 E2 =    -0.5256740097D+00 EUMP2 =    -0.15682201766129D+03
 SCF Done:  E(RHF) =  -156.295712316     A.U. after    8 cycles
 E2 =    -0.5262551316D+00 EUMP2 =    -0.15682196744771D+03
 E2 =    -0.5262551316D+00 EUMP2 =    -0.15682196744771D+03
 SCF Done:  E(RHF) =  -156.296873952     A.U. after    8 cycles
 E2 =    -0.5250810112D+00 EUMP2 =    -0.15682195496347D+03
 E2 =    -0.5250810112D+00 EUMP2 =    -0.15682195496347D+03
 SCF Done:  E(RHF) =  -156.296600165     A.U. after    8 cycles
 E2 =    -0.5253515448D+00 EUMP2 =    -0.15682195170936D+03
 E2 =    -0.5253515448D+00 EUMP2 =    -0.15682195170936D+03
 SCF Done:  E(RHF) =  -156.295962012     A.U. after    8 cycles
 E2 =    -0.5259938387D+00 EUMP2 =    -0.15682195585045D+03
 E2 =    -0.5259938387D+00 EUMP2 =    -0.15682195585045D+03
 SCF Done:  E(RHF) =  -156.296275698     A.U. after    8 cycles
 E2 =    -0.5256711524D+00 EUMP2 =    -0.15682194685011D+03
 E2 =    -0.5256711524D+00 EUMP2 =    -0.15682194685011D+03
 SCF Done:  E(RHF) =  -156.296275888     A.U. after    8 cycles
 E2 =    -0.5256711206D+00 EUMP2 =    -0.15682194700823D+03
 E2 =    -0.5256711206D+00 EUMP2 =    -0.15682194700823D+03
 SCF Done:  E(RHF) =  -156.296276664     A.U. after    8 cycles
 E2 =    -0.5256712293D+00 EUMP2 =    -0.15682194789340D+03
 E2 =    -0.5256712293D+00 EUMP2 =    -0.15682194789340D+03
 SCF Done:  E(RHF) =  -156.296274912     A.U. after    8 cycles
 E2 =    -0.5256710434D+00 EUMP2 =    -0.15682194595499D+03
 E2 =    -0.5256710434D+00 EUMP2 =    -0.15682194595499D+03

 Alpha  occ. eigenvalues --  -26.22381 -15.58814  -1.52529  -1.19255  -0.70969
 Alpha  occ. eigenvalues --   -0.67869  -0.67500  -0.58051  -0.58050  -0.48444
 Alpha virt. eigenvalues --    0.01891   0.04189   0.04190   0.06943   0.12820
 Alpha virt. eigenvalues --    0.13790   0.14916   0.14916   0.19618   0.19691
 Alpha virt. eigenvalues --    0.20746   0.20747   0.23663   0.27298   0.27327

 Mulliken charges:
               1
     1  N   -0.246248
     2  H    0.134858
     3  H    0.135263
     4  H    0.125996
     5  F   -0.411217
     6  H    0.261347
 Sum of Mulliken charges =  -0.00000

 Dipole moment (field-independent basis, Debye):
    X=             -4.6324    Y=              0.0067    Z=             -0.0000  Tot=              4.6324
 Quadrupole moment (field-independent basis, Debye-Ang):
   XX=            -13.7846   YY=            -12.0510   ZZ=            -12.0231
   XY=             -0.0195   XZ=              0.0001   YZ=             -0.0016

  Exact polarizability:  23.544  -0.054  16.769   0.000  -0.007  16.887
 Approx polarizability:  15.493  -0.041  13.655   0.000  -0.006  13.753

                      1                      2                      3
                      A                      A                      A
 Frequencies --    265.9034               265.9250               275.3720
 Red. masses --      1.0981                 1.0982                 5.2832
 Frc consts  --      0.0457                 0.0458                 0.2360
 IR Inten    --      9.7688                 9.7658                 8.7746

                      4                      5                      6
                      A                      A                      A
 Frequencies --    991.2199               991.2349              1136.8030
 Red. masses --      1.0492                 1.0492                 1.1962
 Frc consts  --      0.6073                 0.6074                 0.9108
 IR Inten    --    105.7778               105.7861               150.9774

                      7                      8                      9
                      A                      A                      A
 Frequencies --   1669.0573              1669.1038              3343.2174
 Red. masses --      1.0617                 1.0617                 1.0638
 Frc consts  --      1.7426                 1.7427                 7.0055
 IR Inten    --     17.6883                17.6859              1603.6757

                     10                     11                     12
                      A                      A                      A
 Frequencies --   3504.3349              3645.9724              3646.0732
 Red. masses --      1.0272                 1.0897                 1.0897
 Frc consts  --      7.4321                 8.5349                 8.5354
 IR Inten    --      7.1894                25.1537                25.1419

 - Thermochemistry -
 -------------------
 Temperature   298.150 Kelvin.  Pressure   1.00000 Atm.
 Atom     1 has atomic number  7 and mass  14.00307

 Molecular mass:    37.03278 amu.
 Principal axes and moments of inertia in atomic units:
                           1         2         3
     Eigenvalues --     9.57242 240.68391 240.68418
           X            1.00000  -0.00001  -0.00000
           Y            0.00001   1.00000  -0.00001
           Z            0.00000   0.00001   1.00000
 This molecule is an asymmetric top.
 Rotational symmetry number  1.
 Rotational temperatures (Kelvin)      9.04828     0.35987     0.35987
 Rotational constants (GHZ):         188.53550     7.49839     7.49838
 Zero-point vibrational energy     128025.6 (Joules/Mol)
                                   30.59886 (Kcal/Mol)
 Warning -- explicit consideration of   3 degrees of freedom as
           vibrations may cause significant error
 Vibrational temperatures:    382.58   382.61   396.20  1426.14  1426.17
          (Kelvin)           1635.61  2401.40  2401.47  4810.14  5041.96
                             5245.74  5245.89

 Zero-point correction=                           0.048762 (Hartree/Particle)
 Thermal correction to Energy=                    0.053078
 Thermal correction to Enthalpy=                  0.054023
 Thermal correction to Gibbs Free Energy=         0.024200
 Sum of electronic and zero-point Energies=           -156.773274
 Sum of electronic and thermal Energies=              -156.768958
 Sum of electronic and thermal Enthalpies=            -156.768014
 Sum of electronic and thermal Free Energies=         -156.797837

                     E (Thermal)             CV                S
                      KCal/Mol        Cal/Mol-Kelvin    Cal/Mol-Kelvin
 Total                   33.307             12.258             62.767
 Electronic               0.000              0.000              0.000
 Translational            0.889              2.981             36.757
 Rotational               0.889              2.981             20.944
 Vibrational             31.530              6.296              5.066
 Vibration     1          0.672              1.736              1.623
 Vibration     2          0.672              1.736              1.623
 Vibration     3          0.677              1.719              1.562

 ## DEPERTURBED TRANSITIONS MOMENTS ##

 Electric dipole : Fundamental Bands
 ------------------------------------------------------------------------

 ## AFTER VARIATIONAL CORRECTION

 Electric dipole : Fundamental Bands
 ------------------------------------------------------------------------

 Optimization completed.
    -- Stationary point found.
 Normal termination of Gaussian 16 at Mon Dec 20 14:33:02 2021.
