 Gaussian 16, Revision A.03,
 Gaussian 16:  ES64L-G16RevA.03 25-Dec-2016

 ----------------------------------------------
 # MP2/aug-cc-pVDZ opt freq=(vibrot,anharmonic)
 ----------------------------------------------

 ----
 bleh
 ----
 Symbolic Z-matrix:
 Charge =  0 Multiplicity = 1

 SCF Done:  E(RHF) =  -192.826613502     A.U. after   11 cycles
 E2 =    -0.5207530685D+00 EUMP2 =    -0.19334736657014D+03
 SCF Done:  E(RHF) =  -192.883796927     A.U. after   11 cycles
 E2 =    -0.5273569501D+00 EUMP2 =    -0.19341115387676D+03
 SCF Done:  E(RHF) =  -192.879538066     A.U. after   12 cycles
 E2 =    -0.5447730957D+00 EUMP2 =    -0.19342431116135D+03
 SCF Done:  E(RHF) =  -192.898916146     A.U. after   11 cycles
 E2 =    -0.5358707994D+00 EUMP2 =    -0.19343478694563D+03
 SCF Done:  E(RHF) =  -192.909324249     A.U. after   12 cycles
 E2 =    -0.5319814586D+00 EUMP2 =    -0.19344130570743D+03
 SCF Done:  E(RHF) =  -192.913801378     A.U. after   14 cycles
 E2 =    -0.5287565864D+00 EUMP2 =    -0.19344255796482D+03
 SCF Done:  E(RHF) =  -192.918170610     A.U. after   13 cycles
 E2 =    -0.5283250285D+00 EUMP2 =    -0.19344649563827D+03
 SCF Done:  E(RHF) =  -192.916281349     A.U. after   14 cycles
 E2 =    -0.5325776576D+00 EUMP2 =    -0.19344885900632D+03
 SCF Done:  E(RHF) =  -192.920928976     A.U. after   14 cycles
 E2 =    -0.5294566860D+00 EUMP2 =    -0.19345038566172D+03
 SCF Done:  E(RHF) =  -192.926320619     A.U. after   13 cycles
 E2 =    -0.5247296592D+00 EUMP2 =    -0.19345105027801D+03
 E2 =    -0.5272164615D+00 EUMP2 =    -0.19345173675584D+03
 E2 =    -0.5268067734D+00 EUMP2 =    -0.19345175121754D+03
 E2 =    -0.5267167232D+00 EUMP2 =    -0.19345175439732D+03
 Optimization completed.
    -- Stationary point found.
 Normal termination of Gaussian 16 at Fri Dec 17 10:56:24 2021.

 ----------------------------------------------------------------------
 #N Geom=AllCheck Guess=TCheck SCRF=Check GenChk RMP2(FC)/Aug-CC-pVDZ F
 req
 ----------------------------------------------------------------------

 Structure from the checkpoint file:  "/gscratch/scrubbed/gds001/Gau-8853.chk"
 ----
 bleh
 ----
 Charge =  0 Multiplicity = 1

                         Standard orientation:
 ---------------------------------------------------------------------
 Center     Atomic      Atomic             Coordinates (Angstroms)
 Number     Number       Type             X           Y           Z
 ---------------------------------------------------------------------
      1          6           0       -1.901842    0.049319    0.000256
      2          7           0       -0.734130   -0.109571   -0.000044
      3          1           0       -2.968799    0.202387   -0.000876
      4          9           0        2.045148    0.035934    0.000059
      5          1           0        1.112430   -0.054714   -0.000892
 ---------------------------------------------------------------------

 E2 =    -0.5267167236D+00 EUMP2 =    -0.19345175439776D+03
 E2 =    -0.5267167236D+00 EUMP2 =    -0.19345175439776D+03
 E2 =    -0.5267165331D+00 EUMP2 =    -0.19345175879766D+03
 E2 =    -0.5267165331D+00 EUMP2 =    -0.19345175879766D+03
 E2 =    -0.5267192408D+00 EUMP2 =    -0.19345174991651D+03
 E2 =    -0.5267192408D+00 EUMP2 =    -0.19345174991651D+03
 E2 =    -0.5267271931D+00 EUMP2 =    -0.19345175382992D+03
 SCF Done:  E(RHF) =  -192.925028762     A.U. after    9 cycles
 E2 =    -0.5267194307D+00 EUMP2 =    -0.19345174819267D+03
 E2 =    -0.5267194307D+00 EUMP2 =    -0.19345174819267D+03
 SCF Done:  E(RHF) =  -192.925035394     A.U. after    9 cycles
 E2 =    -0.5267183046D+00 EUMP2 =    -0.19345175369815D+03
 E2 =    -0.5267183046D+00 EUMP2 =    -0.19345175369815D+03
 SCF Done:  E(RHF) =  -192.925040156     A.U. after    8 cycles
 E2 =    -0.5267171903D+00 EUMP2 =    -0.19345175734648D+03
 E2 =    -0.5267171903D+00 EUMP2 =    -0.19345175734648D+03
 SCF Done:  E(RHF) =  -192.925024010     A.U. after    9 cycles
 E2 =    -0.5267205404D+00 EUMP2 =    -0.19345174455057D+03
 E2 =    -0.5267205404D+00 EUMP2 =    -0.19345174455057D+03
 SCF Done:  E(RHF) =  -192.924130226     A.U. after    8 cycles
 E2 =    -0.5275968164D+00 EUMP2 =    -0.19345172704266D+03
 E2 =    -0.5275968164D+00 EUMP2 =    -0.19345172704266D+03
 SCF Done:  E(RHF) =  -192.925885137     A.U. after    8 cycles
 E2 =    -0.5258410139D+00 EUMP2 =    -0.19345172615118D+03
 E2 =    -0.5258410139D+00 EUMP2 =    -0.19345172615118D+03
 SCF Done:  E(RHF) =  -192.925081905     A.U. after    9 cycles
 E2 =    -0.5265939666D+00 EUMP2 =    -0.19345167587137D+03
 E2 =    -0.5265939666D+00 EUMP2 =    -0.19345167587137D+03
 SCF Done:  E(RHF) =  -192.924830110     A.U. after    9 cycles
 E2 =    -0.5268411587D+00 EUMP2 =    -0.19345167126917D+03
 E2 =    -0.5268411587D+00 EUMP2 =    -0.19345167126917D+03
 SCF Done:  E(RHF) =  -192.924306552     A.U. after    9 cycles
 E2 =    -0.5273516884D+00 EUMP2 =    -0.19345165824051D+03
 E2 =    -0.5273516884D+00 EUMP2 =    -0.19345165824051D+03
 SCF Done:  E(RHF) =  -192.925576021     A.U. after    9 cycles
 E2 =    -0.5260802874D+00 EUMP2 =    -0.19345165630873D+03
 E2 =    -0.5260802874D+00 EUMP2 =    -0.19345165630873D+03

 Alpha  occ. eigenvalues --  -26.26020 -15.65038 -11.34925  -1.55853  -1.26264
 Alpha  occ. eigenvalues --   -0.84272  -0.73862  -0.61869  -0.60391  -0.60390
 Alpha  occ. eigenvalues --   -0.52220  -0.52216
 Alpha virt. eigenvalues --    0.01950   0.06663   0.06788   0.06852   0.10206
 Alpha virt. eigenvalues --    0.13578   0.13584   0.14300   0.21454   0.21798
 Alpha virt. eigenvalues --    0.22652   0.24586   0.30380   0.30540   0.31776

 Mulliken charges:
               1
     1  C    0.161150
     2  N   -0.223840
     3  H    0.039342
     4  F   -0.343913
     5  H    0.367261
 Sum of Mulliken charges =   0.00000

 Dipole moment (field-independent basis, Debye):
    X=             -5.7480    Y=              0.2412    Z=             -0.0024  Tot=              5.7531
 Quadrupole moment (field-independent basis, Debye-Ang):
   XX=            -12.4053   YY=            -17.7802   ZZ=            -17.8185
   XY=             -1.0559   XZ=              0.0015   YZ=             -0.0001

  Exact polarizability:  31.654  -0.952  17.268  -0.000   0.000  17.091
 Approx polarizability:  28.632  -1.365  15.559  -0.003   0.001  15.333

                      1                      2                      3
                      A                      A                      A
 Frequencies --     76.6141               184.5444               632.1697
 Red. masses --      4.1198                 9.3789                 1.0578
 Frc consts  --      0.0142                 0.1882                 0.2491
 IR Inten    --     12.0186                 5.5480               105.3509

                      4                      5                      6
                      A                      A                      A
 Frequencies --    632.2176               714.6688               714.6991
 Red. masses --      1.0575                 1.3299                 1.3173
 Frc consts  --      0.2490                 0.4002                 0.3964
 IR Inten    --    106.3499                48.8781                49.2098

                      7                      8                      9
                      A                      A                      A
 Frequencies --   2028.3195              3458.1823              3790.3396
 Red. masses --      5.7051                 1.1625                 1.0595
 Frc consts  --     13.8290                 8.1913                 8.9680
 IR Inten    --      0.9088               103.3640               866.0410

 - Thermochemistry -
 -------------------
 Temperature   298.150 Kelvin.  Pressure   1.00000 Atm.
 Atom     1 has atomic number  6 and mass  12.00000

 Molecular mass:    47.01713 amu.
 Principal axes and moments of inertia in atomic units:
                           1         2         3
     Eigenvalues --     0.93551 500.76199 501.69749
           X            0.99999  -0.00528   0.00001
           Y            0.00528   0.99999  -0.00054
           Z           -0.00001   0.00054   1.00000
 This molecule is an asymmetric top.
 Rotational symmetry number  1.
 Rotational temperatures (Kelvin)     92.58426     0.17296     0.17264
 Rotational constants (GHZ):        1929.14278     3.60399     3.59727
 Zero-point vibrational energy      73162.1 (Joules/Mol)
                                   17.48617 (Kcal/Mol)
 Warning -- explicit consideration of   2 degrees of freedom as
           vibrations may cause significant error
 Vibrational temperatures:    110.23   265.52   909.55   909.62  1028.25
          (Kelvin)           1028.29  2918.30  4975.55  5453.45

 Zero-point correction=                           0.027866 (Hartree/Particle)
 Thermal correction to Energy=                    0.032565
 Thermal correction to Enthalpy=                  0.033509
 Thermal correction to Gibbs Free Energy=         0.002534
 Sum of electronic and zero-point Energies=           -193.423888
 Sum of electronic and thermal Energies=              -193.419190
 Sum of electronic and thermal Enthalpies=            -193.418245
 Sum of electronic and thermal Free Energies=         -193.449220

                     E (Thermal)             CV                S
                      KCal/Mol        Cal/Mol-Kelvin    Cal/Mol-Kelvin
 Total                   20.435             13.329             65.192
 Electronic               0.000              0.000              0.000
 Translational            0.889              2.981             37.469
 Rotational               0.889              2.981             20.091
 Vibrational             18.657              7.368              7.632
 Vibration     1          0.599              1.965              3.976
 Vibration     2          0.631              1.861              2.282

 ## DEPERTURBED TRANSITIONS MOMENTS ##

 Electric dipole : Fundamental Bands
 ------------------------------------------------------------------------

 ## AFTER VARIATIONAL CORRECTION

 Electric dipole : Fundamental Bands
 ------------------------------------------------------------------------

 Optimization completed.
    -- Stationary point found.
 Normal termination of Gaussian 16 at Fri Dec 17 11:03:56 2021.
