 Gaussian 16, Revision A.03,
 Gaussian 16:  ES64L-G16RevA.03 25-Dec-2016

 ----------------------------------------------
 # MP2/aug-cc-pVTZ opt freq=(vibrot,anharmonic)
 ----------------------------------------------

 ----
 bleh
 ----
 Symbolic Z-matrix:
 Charge =  0 Multiplicity = 1

 SCF Done:  E(RHF) =  -192.973036788     A.U. after   10 cycles
 E2 =    -0.6396143165D+00 EUMP2 =    -0.19361265110422D+03
 SCF Done:  E(RHF) =  -192.976659134     A.U. after    9 cycles
 E2 =    -0.6365332967D+00 EUMP2 =    -0.19361319243032D+03
 SCF Done:  E(RHF) =  -192.976662571     A.U. after   12 cycles
 E2 =    -0.6361143568D+00 EUMP2 =    -0.19361277692769D+03
 SCF Done:  E(RHF) =  -192.976065222     A.U. after   12 cycles
 E2 =    -0.6371594324D+00 EUMP2 =    -0.19361322465459D+03
 SCF Done:  E(RHF) =  -192.977367408     A.U. after   13 cycles
 E2 =    -0.6357558706D+00 EUMP2 =    -0.19361312327882D+03
 SCF Done:  E(RHF) =  -192.977073259     A.U. after   11 cycles
 E2 =    -0.6362375232D+00 EUMP2 =    -0.19361331078267D+03
 SCF Done:  E(RHF) =  -192.977135838     A.U. after    9 cycles
 E2 =    -0.6361541150D+00 EUMP2 =    -0.19361328995339D+03
 SCF Done:  E(RHF) =  -192.977387661     A.U. after   10 cycles
 E2 =    -0.6358749224D+00 EUMP2 =    -0.19361326258298D+03
 SCF Done:  E(RHF) =  -192.976924734     A.U. after    9 cycles
 E2 =    -0.6363814302D+00 EUMP2 =    -0.19361330616440D+03
 SCF Done:  E(RHF) =  -192.977021861     A.U. after    9 cycles
 E2 =    -0.6362912283D+00 EUMP2 =    -0.19361331308924D+03
 E2 =    -0.6362477647D+00 EUMP2 =    -0.19361331298652D+03
 E2 =    -0.6362450191D+00 EUMP2 =    -0.19361331321115D+03
 Optimization completed.
    -- Stationary point found.
 Normal termination of Gaussian 16 at Mon Jan  3 11:23:54 2022.

 ----------------------------------------------------------------------
 #N Geom=AllCheck Guess=TCheck SCRF=Check GenChk RMP2(FC)/Aug-CC-pVTZ F
 req
 ----------------------------------------------------------------------

 Structure from the checkpoint file:  "/gscratch/scrubbed/gds001/Gau-19005.chk"
 ----
 bleh
 ----
 Charge =  0 Multiplicity = 1

                         Standard orientation:
 ---------------------------------------------------------------------
 Center     Atomic      Atomic             Coordinates (Angstroms)
 Number     Number       Type             X           Y           Z
 ---------------------------------------------------------------------
      1          6           0        1.894870    0.002895   -0.000014
      2          7           0        0.731628   -0.006399    0.000028
      3          1           0        2.960466    0.011824    0.000009
      4          9           0       -2.038582    0.002132    0.000018
      5          1           0       -1.103853   -0.003593   -0.000290
 ---------------------------------------------------------------------

 E2 =    -0.6362450324D+00 EUMP2 =    -0.19361331322438D+03
 E2 =    -0.6362450324D+00 EUMP2 =    -0.19361331322438D+03
 E2 =    -0.6362461465D+00 EUMP2 =    -0.19361331290091D+03
 E2 =    -0.6362461465D+00 EUMP2 =    -0.19361331290091D+03
 E2 =    -0.6362460381D+00 EUMP2 =    -0.19361331344676D+03
 E2 =    -0.6362460381D+00 EUMP2 =    -0.19361331344676D+03
 E2 =    -0.6362329121D+00 EUMP2 =    -0.19361331290230D+03
 E2 =    -0.6362329121D+00 EUMP2 =    -0.19361331290230D+03
 SCF Done:  E(RHF) =  -192.977062535     A.U. after    7 cycles
 E2 =    -0.6362470796D+00 EUMP2 =    -0.19361330961412D+03
 E2 =    -0.6362470796D+00 EUMP2 =    -0.19361330961412D+03
 SCF Done:  E(RHF) =  -192.977062501     A.U. after    7 cycles
 E2 =    -0.6362471134D+00 EUMP2 =    -0.19361330961405D+03
 E2 =    -0.6362471134D+00 EUMP2 =    -0.19361330961405D+03
 SCF Done:  E(RHF) =  -192.977062113     A.U. after    7 cycles
 E2 =    -0.6362471830D+00 EUMP2 =    -0.19361330929610D+03
 E2 =    -0.6362471830D+00 EUMP2 =    -0.19361330929610D+03
 SCF Done:  E(RHF) =  -192.977062946     A.U. after    7 cycles
 E2 =    -0.6362469855D+00 EUMP2 =    -0.19361330993160D+03
 E2 =    -0.6362469855D+00 EUMP2 =    -0.19361330993160D+03
 SCF Done:  E(RHF) =  -192.977819530     A.U. after    7 cycles
 E2 =    -0.6354648658D+00 EUMP2 =    -0.19361328439605D+03
 E2 =    -0.6354648658D+00 EUMP2 =    -0.19361328439605D+03
 SCF Done:  E(RHF) =  -192.976254368     A.U. after    7 cycles
 E2 =    -0.6370304853D+00 EUMP2 =    -0.19361328485301D+03
 E2 =    -0.6370304853D+00 EUMP2 =    -0.19361328485301D+03
 SCF Done:  E(RHF) =  -192.976819554     A.U. after    8 cycles
 E2 =    -0.6364110574D+00 EUMP2 =    -0.19361323061165D+03
 E2 =    -0.6364110574D+00 EUMP2 =    -0.19361323061165D+03
 SCF Done:  E(RHF) =  -192.977150373     A.U. after    8 cycles
 E2 =    -0.6360840305D+00 EUMP2 =    -0.19361323440400D+03
 E2 =    -0.6360840305D+00 EUMP2 =    -0.19361323440400D+03
 SCF Done:  E(RHF) =  -192.977566155     A.U. after    8 cycles
 E2 =    -0.6356445138D+00 EUMP2 =    -0.19361321066834D+03
 E2 =    -0.6356445138D+00 EUMP2 =    -0.19361321066834D+03
 SCF Done:  E(RHF) =  -192.976373209     A.U. after    8 cycles
 E2 =    -0.6368438994D+00 EUMP2 =    -0.19361321710794D+03
 E2 =    -0.6368438994D+00 EUMP2 =    -0.19361321710794D+03

 Alpha  occ. eigenvalues --  -26.24532 -15.63682 -11.33485  -1.54505  -1.26731
 Alpha  occ. eigenvalues --   -0.84666  -0.73132  -0.61739  -0.59903  -0.59903
 Alpha  occ. eigenvalues --   -0.52872  -0.52872
 Alpha virt. eigenvalues --    0.01453   0.05638   0.05868   0.05868   0.08971
 Alpha virt. eigenvalues --    0.11449   0.11973   0.11973   0.17038   0.17039
 Alpha virt. eigenvalues --    0.18288   0.19862   0.24536   0.25225   0.25226

 Mulliken charges:
               1
     1  C   -0.475121
     2  N   -0.224381
     3  H    0.753633
     4  F   -0.394863
     5  H    0.340731
 Sum of Mulliken charges =  -0.00000

 Dipole moment (field-independent basis, Debye):
    X=              5.8871    Y=              0.0132    Z=             -0.0005  Tot=              5.8871
 Quadrupole moment (field-independent basis, Debye-Ang):
   XX=            -12.2429   YY=            -17.6137   ZZ=            -17.6138
   XY=              0.0628   XZ=              0.0005   YZ=              0.0000

  Exact polarizability:  31.667   0.054  17.778  -0.000   0.000  17.778
 Approx polarizability:  28.146   0.075  15.733  -0.001  -0.000  15.732

                      1                      2                      3
                      A                      A                      A
 Frequencies --     81.8860               189.1247               651.5313
 Red. masses --      4.0481                 9.4110                 1.0579
 Frc consts  --      0.0160                 0.1983                 0.2646
 IR Inten    --     10.9847                 4.7459               108.4715

                      4                      5                      6
                      A                      A                      A
 Frequencies --    651.6047               730.5410               730.6179
 Red. masses --      1.0549                 1.3388                 1.3222
 Frc consts  --      0.2639                 0.4210                 0.4159
 IR Inten    --    107.8214                41.8504                42.3722

                      7                      8                      9
                      A                      A                      A
 Frequencies --   2057.0364              3455.6651              3833.2386
 Red. masses --      5.6491                 1.1649                 1.0596
 Frc consts  --     14.0836                 8.1957                 9.1732
 IR Inten    --      1.6097               106.6575               899.9302

 - Thermochemistry -
 -------------------
 Temperature   298.150 Kelvin.  Pressure   1.00000 Atm.
 Atom     1 has atomic number  6 and mass  12.00000

 Molecular mass:    47.01713 amu.
 Principal axes and moments of inertia in atomic units:
                           1         2         3
     Eigenvalues --     0.00321 497.36867 497.37188
           X            1.00000   0.00031   0.00000
           Y           -0.00031   1.00000   0.00131
           Z           -0.00000  -0.00131   1.00000
 This molecule is an asymmetric top.
 Rotational symmetry number  1.
 Rotational temperatures (Kelvin)  26952.87333     0.17414     0.17414
 Rotational constants (GHZ):      561606.72366     3.62858     3.62855
 Zero-point vibrational energy      74056.3 (Joules/Mol)
                                   17.69988 (Kcal/Mol)
 Warning -- explicit consideration of   2 degrees of freedom as
           vibrations may cause significant error
 Vibrational temperatures:    117.82   272.11   937.41   937.51  1051.09
          (Kelvin)           1051.20  2959.62  4971.93  5515.18

 Zero-point correction=                           0.028207 (Hartree/Particle)
 Thermal correction to Energy=                    0.032857
 Thermal correction to Enthalpy=                  0.033801
 Thermal correction to Gibbs Free Energy=         0.005639
 Sum of electronic and zero-point Energies=           -193.585107
 Sum of electronic and thermal Energies=              -193.580456
 Sum of electronic and thermal Enthalpies=            -193.579512
 Sum of electronic and thermal Free Energies=         -193.607674

                     E (Thermal)             CV                S
                      KCal/Mol        Cal/Mol-Kelvin    Cal/Mol-Kelvin
 Total                   20.618             13.181             59.271
 Electronic               0.000              0.000              0.000
 Translational            0.889              2.981             37.469
 Rotational               0.889              2.981             14.438
 Vibrational             18.840              7.219              7.364
 Vibration     1          0.600              1.962              3.845
 Vibration     2          0.633              1.855              2.236

 ## DEPERTURBED TRANSITIONS MOMENTS ##

 Electric dipole : Fundamental Bands
 ------------------------------------------------------------------------

 ## AFTER VARIATIONAL CORRECTION

 Electric dipole : Fundamental Bands
 ------------------------------------------------------------------------

 Optimization completed.
    -- Stationary point found.
 Normal termination of Gaussian 16 at Mon Jan  3 12:22:05 2022.
