 Gaussian 16, Revision C.01,
 Gaussian 16:  EM64L-G16RevC.01  3-Jul-2019

 ----------------------------------------------
 # MP2/aug-cc-pVDZ opt freq=(vibrot,anharmonic)
 ----------------------------------------------

 ----
 blah
 ----
 Symbolic Z-matrix:
 Charge =  0 Multiplicity = 1

 SCF Done:  E(RHF) =  -254.131891371     A.U. after   11 cycles
 E2 =    -0.7325730065D+00 EUMP2 =    -0.25486446437706D+03
 SCF Done:  E(RHF) =  -254.130657745     A.U. after    9 cycles
 E2 =    -0.7344973549D+00 EUMP2 =    -0.25486515510029D+03
 SCF Done:  E(RHF) =  -254.130566421     A.U. after    8 cycles
 E2 =    -0.7346080118D+00 EUMP2 =    -0.25486517443307D+03
 SCF Done:  E(RHF) =  -254.130444899     A.U. after    9 cycles
 E2 =    -0.7347421904D+00 EUMP2 =    -0.25486518708966D+03
 SCF Done:  E(RHF) =  -254.130321091     A.U. after    9 cycles
 E2 =    -0.7348731268D+00 EUMP2 =    -0.25486519421741D+03
 SCF Done:  E(RHF) =  -254.130228001     A.U. after    9 cycles
 E2 =    -0.7349735520D+00 EUMP2 =    -0.25486520155304D+03
 SCF Done:  E(RHF) =  -254.130135703     A.U. after   10 cycles
 E2 =    -0.7350800794D+00 EUMP2 =    -0.25486521578253D+03
 SCF Done:  E(RHF) =  -254.130157136     A.U. after    9 cycles
 E2 =    -0.7350688187D+00 EUMP2 =    -0.25486522595514D+03
 SCF Done:  E(RHF) =  -254.130184248     A.U. after    7 cycles
 E2 =    -0.7350437266D+00 EUMP2 =    -0.25486522797512D+03
 SCF Done:  E(RHF) =  -254.130187645     A.U. after    7 cycles
 E2 =    -0.7350406026D+00 EUMP2 =    -0.25486522824757D+03
 E2 =    -0.7350439234D+00 EUMP2 =    -0.25486522838054D+03
 Optimization completed.
    -- Stationary point found.
 Normal termination of Gaussian 16 at Tue Mar 18 20:36:06 2025.

 ----------------------------------------------------------------------
 #N Geom=AllCheck Guess=TCheck SCRF=Check GenChk RMP2(FC)/Aug-CC-pVDZ F
 req
 ----------------------------------------------------------------------

 Structure from the checkpoint file:  "/scr/Gau-84397.chk"
 ----
 blah
 ----
 Charge =  0 Multiplicity = 1

                         Standard orientation:
 ---------------------------------------------------------------------
 Center     Atomic      Atomic             Coordinates (Angstroms)
 Number     Number       Type             X           Y           Z
 ---------------------------------------------------------------------
      1          8           0       -0.357490    0.000006   -0.438644
      2          6           0       -0.944864    1.184644    0.120773
      3          6           0       -0.944754   -1.184691    0.120768
      4          1           0        1.243698    0.000056   -0.168330
      5          9           0        2.163963    0.000041    0.078168
      6          1           0       -0.436447   -2.040429   -0.340531
      7          1           0       -2.022133   -1.218948   -0.112205
      8          1           0       -0.802082   -1.210474    1.215092
      9          1           0       -0.436572    2.040431   -0.340453
     10          1           0       -0.802275    1.210391    1.215108
     11          1           0       -2.022227    1.218844   -0.112280
 ---------------------------------------------------------------------

 E2 =    -0.7350439065D+00 EUMP2 =    -0.25486522836369D+03
 E2 =    -0.7350439065D+00 EUMP2 =    -0.25486522836369D+03
 E2 =    -0.7350441036D+00 EUMP2 =    -0.25486522833831D+03
 E2 =    -0.7350441036D+00 EUMP2 =    -0.25486522833831D+03
 E2 =    -0.7350440613D+00 EUMP2 =    -0.25486522833676D+03
 E2 =    -0.7350440613D+00 EUMP2 =    -0.25486522833676D+03
 E2 =    -0.7350344810D+00 EUMP2 =    -0.25486522834904D+03
 E2 =    -0.7350344810D+00 EUMP2 =    -0.25486522834904D+03
 E2 =    -0.7350541786D+00 EUMP2 =    -0.25486522831950D+03
 SCF Done:  E(RHF) =  -254.130098932     A.U. after    8 cycles
 E2 =    -0.7350633620D+00 EUMP2 =    -0.25486516229411D+03
 E2 =    -0.7350633620D+00 EUMP2 =    -0.25486516229411D+03
 SCF Done:  E(RHF) =  -254.130137777     A.U. after    8 cycles
 E2 =    -0.7350243594D+00 EUMP2 =    -0.25486516213689D+03
 E2 =    -0.7350243594D+00 EUMP2 =    -0.25486516213689D+03
 SCF Done:  E(RHF) =  -254.130118473     A.U. after    7 cycles
 E2 =    -0.7350435253D+00 EUMP2 =    -0.25486516199793D+03
 E2 =    -0.7350435253D+00 EUMP2 =    -0.25486516199793D+03
 SCF Done:  E(RHF) =  -254.130118472     A.U. after    7 cycles
 E2 =    -0.7350435235D+00 EUMP2 =    -0.25486516199589D+03
 E2 =    -0.7350435235D+00 EUMP2 =    -0.25486516199589D+03
 SCF Done:  E(RHF) =  -254.130115728     A.U. after    7 cycles
 E2 =    -0.7350434856D+00 EUMP2 =    -0.25486515921413D+03
 E2 =    -0.7350434856D+00 EUMP2 =    -0.25486515921413D+03
 SCF Done:  E(RHF) =  -254.130115677     A.U. after    7 cycles
 E2 =    -0.7350435404D+00 EUMP2 =    -0.25486515921745D+03
 E2 =    -0.7350435404D+00 EUMP2 =    -0.25486515921745D+03
 SCF Done:  E(RHF) =  -254.130032348     A.U. after    8 cycles
 E2 =    -0.7351275878D+00 EUMP2 =    -0.25486515993556D+03
 E2 =    -0.7351275878D+00 EUMP2 =    -0.25486515993556D+03
 SCF Done:  E(RHF) =  -254.130198881     A.U. after    8 cycles
 E2 =    -0.7349595111D+00 EUMP2 =    -0.25486515839195D+03
 E2 =    -0.7349595111D+00 EUMP2 =    -0.25486515839195D+03
 SCF Done:  E(RHF) =  -254.129477042     A.U. after    9 cycles
 E2 =    -0.7356730257D+00 EUMP2 =    -0.25486515006749D+03
 E2 =    -0.7356730257D+00 EUMP2 =    -0.25486515006749D+03
 SCF Done:  E(RHF) =  -254.130736126     A.U. after    9 cycles
 E2 =    -0.7344103197D+00 EUMP2 =    -0.25486514644545D+03
 E2 =    -0.7344103197D+00 EUMP2 =    -0.25486514644545D+03

 Alpha  occ. eigenvalues --  -26.25149 -20.60643 -11.30505 -11.30503  -1.54872
 Alpha  occ. eigenvalues --   -1.40409  -0.99089  -0.90346  -0.74066  -0.67855
 Alpha  occ. eigenvalues --   -0.66166  -0.66067  -0.59682  -0.59617  -0.57345
 Alpha  occ. eigenvalues --   -0.54906  -0.51690  -0.46267
 Alpha virt. eigenvalues --    0.03053   0.04449   0.05157   0.05705   0.07180
 Alpha virt. eigenvalues --    0.07475   0.09085   0.10914   0.14013   0.14539
 Alpha virt. eigenvalues --    0.15868   0.16411   0.16770   0.18118   0.19473

 Mulliken charges:
               1
     1  O   -0.857428
     2  C    0.734121
     3  C    0.734124
     4  H    0.433310
     5  F   -0.329643
     6  H   -0.206963
     7  H   -0.120680
     8  H   -0.029602
     9  H   -0.206970
    10  H   -0.029577
    11  H   -0.120692
 Sum of Mulliken charges =  -0.00000

 Dipole moment (field-independent basis, Debye):
    X=             -3.9607    Y=             -0.0001    Z=              0.5422  Tot=              3.9976
 Quadrupole moment (field-independent basis, Debye-Ang):
   XX=            -31.8965   YY=            -22.6103   ZZ=            -26.7916
   XY=             -0.0002   XZ=             -0.8892   YZ=              0.0000

  Exact polarizability:      40.091      -0.000      41.067      -0.103      -0.000      33.843
 Approx polarizability:      31.104      -0.000      30.620      -0.083      -0.000      29.087

                      1                      2                      3
                      A                      A                      A
 Frequencies --     69.8828                71.3107               177.4500
 Red. masses --      3.5443                 2.2239                 1.0424
 Frc consts  --      0.0102                 0.0067                 0.0193
 IR Inten    --      1.9455                 4.1538                 0.0103

                      4                      5                      6
                      A                      A                      A
 Frequencies --    214.1515               296.5097               421.1401
 Red. masses --      1.8034                 2.4502                 2.4164
 Frc consts  --      0.0487                 0.1269                 0.2525
 IR Inten    --      1.5017                19.7059                 7.6314

                      7                      8                      9
                      A                      A                      A
 Frequencies --    843.2710               920.3697               928.5243
 Red. masses --      1.0466                 4.1243                 1.0397
 Frc consts  --      0.4385                 2.0584                 0.5281
 IR Inten    --    119.2309                39.6484                47.6422

                     10                     11                     12
                      A                      A                      A
 Frequencies --   1097.3858              1155.9043              1178.8644
 Red. masses --      2.1494                 1.2236                 2.1710
 Frc consts  --      1.5250                 0.9633                 1.7777
 IR Inten    --     63.6941                 0.7389                82.3558

                     13                     14                     15
                      A                      A                      A
 Frequencies --   1191.4425              1263.6265              1441.2403
 Red. masses --      1.3604                 1.5798                 1.1164
 Frc consts  --      1.1378                 1.4862                 1.3662
 IR Inten    --      6.8661                 7.0661                 1.3062

                     16                     17                     18
                      A                      A                      A
 Frequencies --   1471.6003              1474.8821              1488.5695
 Red. masses --      1.1564                 1.0435                 1.0497
 Frc consts  --      1.4755                 1.3374                 1.3705
 IR Inten    --      1.0269                 0.0164                10.4885

                     19                     20                     21
                      A                      A                      A
 Frequencies --   1490.7969              1503.4361              3044.9631
 Red. masses --      1.0477                 1.0480                 1.0321
 Frc consts  --      1.3719                 1.3957                 5.6380
 IR Inten    --     16.8833                 3.7071                35.8854

                     22                     23                     24
                      A                      A                      A
 Frequencies --   3047.3512              3128.8344              3134.1038
 Red. masses --      1.0333                 1.1051                 1.1068
 Frc consts  --      5.6538                 6.3742                 6.4052
 IR Inten    --     59.7122                66.3366                 0.2722

                     25                     26                     27
                      A                      A                      A
 Frequencies --   3199.0772              3200.1167              3442.3517
 Red. masses --      1.1024                 1.1031                 1.0625
 Frc consts  --      6.6469                 6.6559                 7.4180
 IR Inten    --     10.2223                11.9236              1320.9745

 - Thermochemistry -
 -------------------
 Temperature   298.150 Kelvin.  Pressure   1.00000 Atm.
 Atom     1 has atomic number  8 and mass  15.99491

 Molecular mass:    66.04809 amu.
 Principal axes and moments of inertia in atomic units:
                           1         2         3
     Eigenvalues --   195.62409 463.77143 611.12836
           X            0.99989  -0.00000  -0.01467
           Y            0.00000   1.00000  -0.00000
           Z            0.01467   0.00000   0.99989
 This molecule is an asymmetric top.
 Rotational symmetry number  1.
 Rotational temperatures (Kelvin)      0.44276     0.18676     0.14173
 Rotational constants (GHZ):           9.22556     3.89145     2.95313
 Zero-point vibrational energy     244619.3 (Joules/Mol)
                                   58.46542 (Kcal/Mol)
 Warning -- explicit consideration of   6 degrees of freedom as
           vibrations may cause significant error
 Vibrational temperatures:    100.55   102.60   255.31   308.12   426.61
          (Kelvin)            605.93  1213.28  1324.21  1335.94  1578.89
                             1663.09  1696.12  1714.22  1818.08  2073.62
                             2117.30  2122.03  2141.72  2144.92  2163.11
                             4381.02  4384.46  4501.69  4509.28  4602.76
                             4604.25  4952.78

 Zero-point correction=                           0.093171 (Hartree/Particle)
 Thermal correction to Energy=                    0.099729
 Thermal correction to Enthalpy=                  0.100673
 Thermal correction to Gibbs Free Energy=         0.062805
 Sum of electronic and zero-point Energies=           -254.772058
 Sum of electronic and thermal Energies=              -254.765499
 Sum of electronic and thermal Enthalpies=            -254.764555
 Sum of electronic and thermal Free Energies=         -254.802423

                     E (Thermal)             CV                S
                      KCal/Mol        Cal/Mol-Kelvin    Cal/Mol-Kelvin
 Total                   62.581             19.810             79.701
 Electronic               0.000              0.000              0.000
 Translational            0.889              2.981             38.482
 Rotational               0.889              2.981             25.520
 Vibrational             60.804             13.848             15.699
 Vibration     1          0.598              1.968              4.157
 Vibration     2          0.598              1.968              4.117
 Vibration     3          0.628              1.870              2.355
 Vibration     4          0.644              1.819              2.008
 Vibration     5          0.690              1.680              1.437
 Vibration     6          0.784              1.424              0.888

 ## DEPERTURBED TRANSITIONS MOMENTS ##

 Electric dipole : Fundamental Bands
 ------------------------------------------------------------------------

 ## AFTER VARIATIONAL CORRECTION

 Electric dipole : Fundamental Bands
 ------------------------------------------------------------------------

 Optimization completed.
    -- Stationary point found.
 Normal termination of Gaussian 16 at Tue Mar 18 22:07:05 2025.
