 Gaussian 16, Revision A.03,
 Gaussian 16:  ES64L-G16RevA.03 25-Dec-2016

 ----------------------------------------------
 # MP2/aug-cc-pVTZ opt freq=(vibrot,anharmonic)
 ----------------------------------------------

 ----
 bleh
 ----
 Symbolic Z-matrix:
 Charge =  0 Multiplicity = 1

 SCF Done:  E(RHF) =  -254.198307140     A.U. after   11 cycles
 E2 =    -0.8971036561D+00 EUMP2 =    -0.25509541079653D+03
 SCF Done:  E(RHF) =  -254.200342404     A.U. after    9 cycles
 E2 =    -0.8957438370D+00 EUMP2 =    -0.25509608624086D+03
 SCF Done:  E(RHF) =  -254.200511955     A.U. after    8 cycles
 E2 =    -0.8955909631D+00 EUMP2 =    -0.25509610291807D+03
 SCF Done:  E(RHF) =  -254.200616874     A.U. after    8 cycles
 E2 =    -0.8954933820D+00 EUMP2 =    -0.25509611025647D+03
 SCF Done:  E(RHF) =  -254.200706928     A.U. after    8 cycles
 E2 =    -0.8954077322D+00 EUMP2 =    -0.25509611466046D+03
 SCF Done:  E(RHF) =  -254.200785858     A.U. after    8 cycles
 E2 =    -0.8953337282D+00 EUMP2 =    -0.25509611958591D+03
 SCF Done:  E(RHF) =  -254.200879855     A.U. after    9 cycles
 E2 =    -0.8952478409D+00 EUMP2 =    -0.25509612769559D+03
 SCF Done:  E(RHF) =  -254.200947824     A.U. after    9 cycles
 E2 =    -0.8951872416D+00 EUMP2 =    -0.25509613506557D+03
 SCF Done:  E(RHF) =  -254.200973412     A.U. after    8 cycles
 E2 =    -0.8951667637D+00 EUMP2 =    -0.25509614017540D+03
 SCF Done:  E(RHF) =  -254.200977956     A.U. after    7 cycles
 E2 =    -0.8951632974D+00 EUMP2 =    -0.25509614125324D+03
 Optimization completed.
    -- Stationary point found.
 Normal termination of Gaussian 16 at Mon Dec 20 14:02:01 2021.

 ----------------------------------------------------------------------
 #N Geom=AllCheck Guess=TCheck SCRF=Check GenChk RMP2(FC)/Aug-CC-pVTZ F
 req
 ----------------------------------------------------------------------

 Structure from the checkpoint file:  "/gscratch/scrubbed/gds001/Gau-4044.chk"
 ----
 bleh
 ----
 Charge =  0 Multiplicity = 1

                         Standard orientation:
 ---------------------------------------------------------------------
 Center     Atomic      Atomic             Coordinates (Angstroms)
 Number     Number       Type             X           Y           Z
 ---------------------------------------------------------------------
      1          8           0        0.331972    0.000054   -0.382174
      2          6           0        0.969145   -1.175904    0.102869
      3          6           0        0.969922    1.175578    0.102893
      4          1           0       -1.269478   -0.000061   -0.129568
      5          9           0       -2.196793    0.000315    0.070626
      6          1           0        0.422848    2.024375   -0.295564
      7          1           0        2.005457    1.209412   -0.240850
      8          1           0        0.948390    1.203350    1.194843
      9          1           0        0.421610   -2.024322   -0.295756
     10          1           0        0.947425   -1.203762    1.194812
     11          1           0        2.004708   -1.210301   -0.240733
 ---------------------------------------------------------------------

 E2 =    -0.8951632787D+00 EUMP2 =    -0.25509614123454D+03
 E2 =    -0.8951632787D+00 EUMP2 =    -0.25509614123454D+03
 E2 =    -0.8951539904D+00 EUMP2 =    -0.25509614120524D+03
 E2 =    -0.8951539904D+00 EUMP2 =    -0.25509614120524D+03
 E2 =    -0.8951732191D+00 EUMP2 =    -0.25509614123175D+03
 E2 =    -0.8951732191D+00 EUMP2 =    -0.25509614123175D+03
 E2 =    -0.8951634428D+00 EUMP2 =    -0.25509614120303D+03
 E2 =    -0.8951634428D+00 EUMP2 =    -0.25509614120303D+03
 E2 =    -0.8951633956D+00 EUMP2 =    -0.25509614121474D+03
 E2 =    -0.8951633956D+00 EUMP2 =    -0.25509614121474D+03
 SCF Done:  E(RHF) =  -254.200900355     A.U. after    8 cycles
 E2 =    -0.8951751251D+00 EUMP2 =    -0.25509607548003D+03
 E2 =    -0.8951751251D+00 EUMP2 =    -0.25509607548003D+03
 SCF Done:  E(RHF) =  -254.200921786     A.U. after    8 cycles
 E2 =    -0.8951532798D+00 EUMP2 =    -0.25509607506541D+03
 E2 =    -0.8951532798D+00 EUMP2 =    -0.25509607506541D+03
 SCF Done:  E(RHF) =  -254.200911157     A.U. after    7 cycles
 E2 =    -0.8951638367D+00 EUMP2 =    -0.25509607499371D+03
 E2 =    -0.8951638367D+00 EUMP2 =    -0.25509607499371D+03
 SCF Done:  E(RHF) =  -254.200911194     A.U. after    7 cycles
 E2 =    -0.8951638499D+00 EUMP2 =    -0.25509607504361D+03
 E2 =    -0.8951638499D+00 EUMP2 =    -0.25509607504361D+03
 SCF Done:  E(RHF) =  -254.200907141     A.U. after    7 cycles
 E2 =    -0.8951651165D+00 EUMP2 =    -0.25509607225708D+03
 E2 =    -0.8951651165D+00 EUMP2 =    -0.25509607225708D+03
 SCF Done:  E(RHF) =  -254.200909524     A.U. after    7 cycles
 E2 =    -0.8951626864D+00 EUMP2 =    -0.25509607221073D+03
 E2 =    -0.8951626864D+00 EUMP2 =    -0.25509607221073D+03
 SCF Done:  E(RHF) =  -254.200959971     A.U. after    8 cycles
 E2 =    -0.8951114057D+00 EUMP2 =    -0.25509607137658D+03
 E2 =    -0.8951114057D+00 EUMP2 =    -0.25509607137658D+03
 SCF Done:  E(RHF) =  -254.200856551     A.U. after    8 cycles
 E2 =    -0.8952165055D+00 EUMP2 =    -0.25509607305624D+03
 E2 =    -0.8952165055D+00 EUMP2 =    -0.25509607305624D+03
 SCF Done:  E(RHF) =  -254.200312152     A.U. after    8 cycles
 E2 =    -0.8957481185D+00 EUMP2 =    -0.25509606027060D+03
 E2 =    -0.8957481185D+00 EUMP2 =    -0.25509606027060D+03
 SCF Done:  E(RHF) =  -254.201480832     A.U. after    8 cycles
 E2 =    -0.8945740005D+00 EUMP2 =    -0.25509605483254D+03
 E2 =    -0.8945740005D+00 EUMP2 =    -0.25509605483254D+03

 Alpha  occ. eigenvalues --  -26.23866 -20.59624 -11.29284 -11.29282  -1.54454
 Alpha  occ. eigenvalues --   -1.40759  -0.99494  -0.90604  -0.74040  -0.68539
 Alpha  occ. eigenvalues --   -0.66609  -0.66511  -0.59607  -0.59570  -0.57700
 Alpha  occ. eigenvalues --   -0.55263  -0.51833  -0.46328
 Alpha virt. eigenvalues --    0.02463   0.03693   0.04104   0.04734   0.06051
 Alpha virt. eigenvalues --    0.06103   0.07846   0.09182   0.11815   0.11974
 Alpha virt. eigenvalues --    0.13119   0.13347   0.13749   0.15069   0.16471

 Mulliken charges:
               1
     1  O   -0.249154
     2  C   -0.862023
     3  C   -0.862026
     4  H    0.275132
     5  F   -0.418798
     6  H    0.369147
     7  H    0.346414
     8  H    0.342907
     9  H    0.369159
    10  H    0.342860
    11  H    0.346383
 Sum of Mulliken charges =  -0.00000

 Dipole moment (field-independent basis, Debye):
    X=              4.0764    Y=             -0.0011    Z=              0.4827  Tot=              4.1049
 Quadrupole moment (field-independent basis, Debye-Ang):
   XX=            -31.6407   YY=            -22.3516   ZZ=            -26.3257
   XY=              0.0023   XZ=              0.6965   YZ=              0.0002

  Exact polarizability:  39.764   0.001  40.788   0.204  -0.000  33.717
 Approx polarizability:  30.756   0.000  30.349   0.161  -0.000  28.771

                      1                      2                      3
                      A                      A                      A
 Frequencies --     56.2458                64.8370               192.0963
 Red. masses --      2.1799                 3.6259                 1.0384
 Frc consts  --      0.0041                 0.0090                 0.0226
 IR Inten    --      2.7755                 1.7507                 0.0026

                      4                      5                      6
                      A                      A                      A
 Frequencies --    207.6641               283.2671               423.4034
 Red. masses --      1.9438                 2.2726                 2.4343
 Frc consts  --      0.0494                 0.1074                 0.2571
 IR Inten    --      1.7743                15.2904                 8.8652

                      7                      8                      9
                      A                      A                      A
 Frequencies --    816.2842               917.4666               941.5798
 Red. masses --      1.0394                 1.0370                 4.1820
 Frc consts  --      0.4081                 0.5143                 2.1845
 IR Inten    --    103.0204                50.1966                51.2699

                     10                     11                     12
                      A                      A                      A
 Frequencies --   1122.0988              1174.8854              1203.0606
 Red. masses --      1.9578                 1.2197                 2.4346
 Frc consts  --      1.4524                 0.9920                 2.0762
 IR Inten    --     54.8330                 0.5693                91.5997

                     13                     14                     15
                      A                      A                      A
 Frequencies --   1208.3516              1282.2662              1470.6166
 Red. masses --      1.3563                 1.5830                 1.1190
 Frc consts  --      1.1668                 1.5335                 1.4258
 IR Inten    --      6.3380                 7.6648                 1.1052

                     16                     17                     18
                      A                      A                      A
 Frequencies --   1499.0718              1507.9102              1518.4351
 Red. masses --      1.1620                 1.0429                 1.0496
 Frc consts  --      1.5385                 1.3972                 1.4258
 IR Inten    --      0.6629                 0.0935                10.9205

                     19                     20                     21
                      A                      A                      A
 Frequencies --   1519.8055              1533.2213              3047.8553
 Red. masses --      1.0479                 1.0466                 1.0320
 Frc consts  --      1.4261                 1.4496                 5.6483
 IR Inten    --     18.5281                 4.2805                33.0497

                     22                     23                     24
                      A                      A                      A
 Frequencies --   3049.6822              3124.4157              3130.5784
 Red. masses --      1.0332                 1.1049                 1.1067
 Frc consts  --      5.6616                 6.3550                 6.3904
 IR Inten    --     55.4975                59.1264                 0.1730

                     25                     26                     27
                      A                      A                      A
 Frequencies --   3195.5972              3195.9212              3518.4397
 Red. masses --      1.1020                 1.1028                 1.0625
 Frc consts  --      6.6302                 6.6365                 7.7496
 IR Inten    --      8.2686                 9.1479              1346.9107

 - Thermochemistry -
 -------------------
 Temperature   298.150 Kelvin.  Pressure   1.00000 Atm.
 Atom     1 has atomic number  8 and mass  15.99491

 Molecular mass:    66.04809 amu.
 Principal axes and moments of inertia in atomic units:
                           1         2         3
     Eigenvalues --   189.77663 474.51284 622.60964
           X            0.99992   0.00004   0.01227
           Y           -0.00004   1.00000  -0.00000
           Z           -0.01227  -0.00000   0.99992
 This molecule is an asymmetric top.
 Rotational symmetry number  1.
 Rotational temperatures (Kelvin)      0.45640     0.18253     0.13911
 Rotational constants (GHZ):           9.50982     3.80336     2.89867
 Zero-point vibrational energy     246461.0 (Joules/Mol)
                                   58.90559 (Kcal/Mol)
 Warning -- explicit consideration of   6 degrees of freedom as
           vibrations may cause significant error
 Vibrational temperatures:     80.93    93.29   276.38   298.78   407.56
          (Kelvin)            609.18  1174.45  1320.03  1354.72  1614.45
                             1690.40  1730.94  1738.55  1844.90  2115.89
                             2156.83  2169.55  2184.69  2186.66  2205.96
                             4385.18  4387.81  4495.34  4504.20  4597.75
                             4598.22  5062.25

 Zero-point correction=                           0.093872 (Hartree/Particle)
 Thermal correction to Energy=                    0.100467
 Thermal correction to Enthalpy=                  0.101411
 Thermal correction to Gibbs Free Energy=         0.063262
 Sum of electronic and zero-point Energies=           -255.002269
 Sum of electronic and thermal Energies=              -254.995675
 Sum of electronic and thermal Enthalpies=            -254.994730
 Sum of electronic and thermal Free Energies=         -255.032880

                     E (Thermal)             CV                S
                      KCal/Mol        Cal/Mol-Kelvin    Cal/Mol-Kelvin
 Total                   63.044             19.739             80.292
 Electronic               0.000              0.000              0.000
 Translational            0.889              2.981             38.482
 Rotational               0.889              2.981             25.531
 Vibrational             61.266             13.778             16.279
 Vibration     1          0.596              1.975              4.585
 Vibration     2          0.597              1.971              4.304
 Vibration     3          0.634              1.851              2.208
 Vibration     4          0.641              1.829              2.064
 Vibration     5          0.682              1.705              1.514
 Vibration     6          0.786              1.419              0.880

 ## DEPERTURBED TRANSITIONS MOMENTS ##

 Electric dipole : Fundamental Bands
 ------------------------------------------------------------------------

 ## AFTER VARIATIONAL CORRECTION

 Electric dipole : Fundamental Bands
 ------------------------------------------------------------------------

                           ! Non-Optimized Parameters !
 Normal termination of Gaussian 16 at Wed Dec 22 06:18:41 2021.
