 Gaussian 16, Revision A.03,
 Gaussian 16:  ES64L-G16RevA.03 25-Dec-2016

 --------------------------
 # MP2/aug-cc-pVTZ opt freq
 --------------------------

 ----
 bleh
 ----
 Symbolic Z-matrix:
 Charge =  0 Multiplicity = 1

 SCF Done:  E(RHF) =  -229.553416141     A.U. after   12 cycles
 E2 =    -0.1014929798D+01 EUMP2 =    -0.23056834593872D+03
 SCF Done:  E(RHF) =  -229.556043120     A.U. after    9 cycles
 E2 =    -0.1013304323D+01 EUMP2 =    -0.23056934744232D+03
 SCF Done:  E(RHF) =  -229.556180826     A.U. after    8 cycles
 E2 =    -0.1013182387D+01 EUMP2 =    -0.23056936321239D+03
 SCF Done:  E(RHF) =  -229.556245021     A.U. after    7 cycles
 E2 =    -0.1013121344D+01 EUMP2 =    -0.23056936636515D+03
 SCF Done:  E(RHF) =  -229.556283086     A.U. after    6 cycles
 E2 =    -0.1013083667D+01 EUMP2 =    -0.23056936675330D+03
 SCF Done:  E(RHF) =  -229.556300959     A.U. after    5 cycles
 E2 =    -0.1013065938D+01 EUMP2 =    -0.23056936689677D+03
 SCF Done:  E(RHF) =  -229.556314954     A.U. after    5 cycles
 E2 =    -0.1013052012D+01 EUMP2 =    -0.23056936696598D+03
 Optimization completed.
    -- Stationary point found.

 The electronic state is 1-A.
 Alpha  occ. eigenvalues --  -15.55201 -15.52019 -11.24280 -11.23889 -11.23887
 Alpha  occ. eigenvalues --   -1.23118  -1.12180  -0.95258  -0.95016  -0.80947
 Alpha  occ. eigenvalues --   -0.65680  -0.63339  -0.63080  -0.61005  -0.59961
 Alpha  occ. eigenvalues --   -0.54689  -0.54525  -0.51869  -0.50142  -0.50100
 Alpha  occ. eigenvalues --   -0.41181  -0.36418
 Alpha virt. eigenvalues --    0.02842   0.03873   0.03923   0.04133   0.05590
 Alpha virt. eigenvalues --    0.05728   0.05967   0.06032   0.06676   0.07831
 Alpha virt. eigenvalues --    0.08272   0.08484   0.11948   0.12232   0.13090

 Mulliken charges:
               1
     1  N   -0.620071
     2  H    0.393187
     3  H    0.115533
     4  H    0.115582
     5  N    0.011764
     6  C   -0.955147
     7  C   -0.955184
     8  C   -0.936726
     9  H    0.354752
    10  H    0.285569
    11  H    0.296823
    12  H    0.354805
    13  H    0.296845
    14  H    0.285496
    15  H    0.317018
    16  H    0.317007
    17  H    0.322745
 Sum of Mulliken charges =  -0.00000

 Dipole moment (field-independent basis, Debye):
    X=              1.1395    Y=             -0.0010    Z=              0.9277  Tot=              1.4694
 Quadrupole moment (field-independent basis, Debye-Ang):
   XX=            -36.0247   YY=            -32.7206   ZZ=            -35.3491
   XY=              0.0033   XZ=             -3.2056   YZ=              0.0016

 1\1\GINC-N2098\FOpt\RMP2-FC\Aug-CC-pVTZ\C3H12N2\GDS001\03-Jan-2022\0\\
 # MP2/aug-cc-pVTZ opt freq\\bleh\\0,1\N,-2.6529682507,0.0006770193,0.2
 757929936\H,-1.6737291098,0.0000176937,0.5595135712\H,-3.088113917,0.8
 108162028,0.6997667433\H,-3.0885556808,-0.8104575078,0.6973969642\N,0.
 4556309901,-0.0002305299,0.1343448538\C,0.4133043105,-1.1888025599,-0.
 7043602461\C,0.4147172827,1.1901742211,-0.7018229509\C,1.661834575,-0.
 0018199543,0.9452440563\H,-0.5082848954,1.1941124171,-1.2804148609\H,1
 .2687833898,1.2310905194,-1.396454156\H,0.4391363955,2.0803505569,-0.0

 Normal termination of Gaussian 16 at Mon Jan  3 12:32:46 2022.

 ----------------------------------------------------------------------
 #N Geom=AllCheck Guess=TCheck SCRF=Check GenChk RMP2(FC)/Aug-CC-pVTZ F
 req
 ----------------------------------------------------------------------

 Structure from the checkpoint file:  "/gscratch/scrubbed/gds001/Gau-7529.chk"
 ----
 bleh
 ----
 Charge =  0 Multiplicity = 1

                         Standard orientation:
 ---------------------------------------------------------------------
 Center     Atomic      Atomic             Coordinates (Angstroms)
 Number     Number       Type             X           Y           Z
 ---------------------------------------------------------------------
      1          7           0       -2.654237    0.000105    0.269217
      2          1           0       -1.675609   -0.000053    0.555038
      3          1           0       -3.090530    0.810431    0.691652
      4          1           0       -3.090489   -0.810844    0.690491
      5          7           0        0.454658    0.000012    0.134437
      6          6           0        0.414481   -1.189197   -0.703470
      7          6           0        0.415188    1.189781   -0.702704
      8          6           0        1.659120   -0.000616    0.947923
      9          1           0       -0.506572    1.193015   -1.283277
     10          1           0        1.270730    1.230433   -1.395532
     11          1           0        0.437997    2.080432   -0.075169
     12          1           0       -0.507258   -1.191491   -1.284081
     13          1           0        0.436718   -2.080266   -0.076505
     14          1           0        1.270025   -1.229933   -1.396290
     15          1           0        1.673258   -0.885652    1.583002
     16          1           0        1.673821    0.884026    1.583536
     17          1           0        2.572230   -0.000720    0.331061
 ---------------------------------------------------------------------

 SCF Done:  E(RHF) =  -229.556314954     A.U. after    1 cycles
 E2 =    -0.1013052017D+01 EUMP2 =    -0.23056936697092D+03
