 Gaussian 16, Revision C.01,
 Gaussian 16:  EM64L-G16RevC.01  3-Jul-2019

 --------------------------------------------------------------------
 # MP2/aug-cc-pVTZ opt freq=(vibrot,anharmonic,selectAnharmonicModes)
 --------------------------------------------------------------------

 ----
 blah
 ----
 Symbolic Z-matrix:
 Charge =  0 Multiplicity = 1

 SCF Done:  E(RHF) =  -229.556314958     A.U. after   11 cycles
 E2 =    -0.1013052001D+01 EUMP2 =    -0.23056936695970D+03
 Optimization completed.
    -- Stationary point found.

 1\1\GINC-N3233\FOpt\RMP2-FC\Aug-CC-pVTZ\C3H12N2\GDS001\29-Mar-2025\0\\
 # MP2/aug-cc-pVTZ opt freq=(vibrot,anharmonic,selectAnharmonicModes)\\
 blah\\0,1\N,-2.654237,0.000105,0.269217\H,-1.675609,-0.000053,0.555038
 \H,-3.09053,0.810431,0.691652\H,-3.090489,-0.810844,0.690491\N,0.45465
 8,0.000012,0.134437\C,0.414481,-1.189197,-0.70347\C,0.415188,1.189781,
 -0.702704\C,1.65912,-0.000616,0.947923\H,-0.506572,1.193015,-1.283277\
 H,1.27073,1.230433,-1.395532\H,0.437997,2.080432,-0.075169\H,-0.507258
 ,-1.191491,-1.284081\H,0.436718,-2.080266,-0.076505\H,1.270025,-1.2299

 Normal termination of Gaussian 16 at Sat Mar 29 10:53:49 2025.

 ----------------------------------------------------------------------
 #N Geom=AllCheck Guess=TCheck SCRF=Check GenChk RMP2(FC)/Aug-CC-pVTZ F
 req
 ----------------------------------------------------------------------

 Structure from the checkpoint file:  "/scr/Gau-82556.chk"
 ----
 blah
 ----
 Charge =  0 Multiplicity = 1

                         Standard orientation:
 ---------------------------------------------------------------------
 Center     Atomic      Atomic             Coordinates (Angstroms)
 Number     Number       Type             X           Y           Z
 ---------------------------------------------------------------------
      1          7           0       -2.654237    0.000105    0.269217
      2          1           0       -1.675609   -0.000053    0.555038
      3          1           0       -3.090530    0.810431    0.691652
      4          1           0       -3.090489   -0.810844    0.690491
      5          7           0        0.454658    0.000012    0.134437
      6          6           0        0.414481   -1.189197   -0.703470
      7          6           0        0.415188    1.189781   -0.702704
      8          6           0        1.659120   -0.000616    0.947923
      9          1           0       -0.506572    1.193015   -1.283277
     10          1           0        1.270730    1.230433   -1.395532
     11          1           0        0.437997    2.080432   -0.075169
     12          1           0       -0.507258   -1.191491   -1.284081
     13          1           0        0.436718   -2.080266   -0.076505
     14          1           0        1.270025   -1.229933   -1.396290
     15          1           0        1.673258   -0.885652    1.583002
     16          1           0        1.673821    0.884026    1.583536
     17          1           0        2.572230   -0.000720    0.331061
 ---------------------------------------------------------------------

 SCF Done:  E(RHF) =  -229.556314958     A.U. after    1 cycles
 E2 =    -0.1013052003D+01 EUMP2 =    -0.23056936696134D+03
 E2 =    -0.1013052003D+01 EUMP2 =    -0.23056936696134D+03

                      1                      2                      3
                      A                      A                      A
 Frequencies --     56.1266                66.1992                85.1237
 Red. masses --      1.8031                 2.6899                 1.3142
 Frc consts  --      0.0033                 0.0069                 0.0056
 IR Inten    --      5.6861                 7.1202                32.1246

                      4                      5                      6
                      A                      A                      A
 Frequencies --    130.1035               245.9406               259.5818
 Red. masses --      4.4312                 1.0355                 1.0172
 Frc consts  --      0.0442                 0.0369                 0.0404
 IR Inten    --      0.1118                 3.6082                 0.4310

                      7                      8                      9
                      A                      A                      A
 Frequencies --    291.2589               294.9183               381.9337
 Red. masses --      1.0952                 1.0756                 1.2727
 Frc consts  --      0.0547                 0.0551                 0.1094
 IR Inten    --      0.7692                 0.3873                63.4831

                     10                     11                     12
                      A                      A                      A
 Frequencies --    395.2511               419.2995               426.1985
 Red. masses --      1.8158                 2.0602                 1.9229
 Frc consts  --      0.1671                 0.2134                 0.2058
 IR Inten    --     61.0516                 0.0230                10.2585

                     13                     14                     15
                      A                      A                      A
 Frequencies --    852.9495              1067.9939              1070.6662
 Red. masses --      3.8633                 1.5557                 1.4378
 Frc consts  --      1.6560                 1.0455                 0.9711
 IR Inten    --     30.4365                 9.4495                 7.0540

                     16                     17                     18
                      A                      A                      A
 Frequencies --   1071.0394              1076.2724              1126.9313
 Red. masses --      1.5681                 1.3407                 1.3163
 Frc consts  --      1.0598                 0.9150                 0.9849
 IR Inten    --     29.7135                95.7544                11.9476

                     19                     20                     21
                      A                      A                      A
 Frequencies --   1127.3226              1221.9738              1305.6787
 Red. masses --      1.3099                 1.6505                 2.6201
 Frc consts  --      0.9808                 1.4521                 2.6318
 IR Inten    --      7.6244                23.1987                13.2236

                     22                     23                     24
                      A                      A                      A
 Frequencies --   1310.6721              1439.7445              1440.5647
 Red. masses --      2.6751                 1.1629                 1.1633
 Frc consts  --      2.7076                 1.4203                 1.4224
 IR Inten    --     13.1221                 0.0030                 0.3133

                     25                     26                     27
                      A                      A                      A
 Frequencies --   1478.9128              1500.6803              1501.0144
 Red. masses --      1.2114                 1.0413                 1.0430
 Frc consts  --      1.5610                 1.3816                 1.3845
 IR Inten    --      2.2024                 6.8685                 1.5834

                     28                     29                     30
                      A                      A                      A
 Frequencies --   1504.5567              1523.0117              1525.9917
 Red. masses --      1.0442                 1.0473                 1.0534
 Frc consts  --      1.3927                 1.4313                 1.4453
 IR Inten    --      1.5291                21.3353                 9.3109

                     31                     32                     33
                      A                      A                      A
 Frequencies --   1526.5851              1665.3598              1694.5085
 Red. masses --      1.0520                 1.0613                 1.0646
 Frc consts  --      1.4445                 1.7342                 1.8010
 IR Inten    --     15.6991                 3.5941                 4.5625

                     34                     35                     36
                      A                      A                      A
 Frequencies --   2971.4390              2973.9177              2977.1943
 Red. masses --      1.0537                 1.0530                 1.0539
 Frc consts  --      5.4817                 5.4872                 5.5037
 IR Inten    --     44.4830                37.9740               156.4823

                     37                     38                     39
                      A                      A                      A
 Frequencies --   3109.0511              3109.4943              3109.5295
 Red. masses --      1.0766                 1.0783                 1.0775
 Frc consts  --      6.1313                 6.1429                 6.1385
 IR Inten    --     27.0662                21.7867                21.4089

                     40                     41                     42
                      A                      A                      A
 Frequencies --   3160.5465              3162.5222              3163.2304
 Red. masses --      1.1045                 1.1042                 1.1040
 Frc consts  --      6.5005                 6.5066                 6.5082
 IR Inten    --      3.5983                23.1039                16.9556

                     43                     44                     45
                      A                      A                      A
 Frequencies --   3423.9177              3585.6974              3640.7846
 Red. masses --      1.0377                 1.0794                 1.0887
 Frc consts  --      7.1674                 8.1770                 8.5026
 IR Inten    --    149.8249                63.2930                 5.2268

 - Thermochemistry -
 -------------------
 Temperature   298.150 Kelvin.  Pressure   1.00000 Atm.
 Atom     1 has atomic number  7 and mass  14.00307

 Molecular mass:    76.10005 amu.
 Principal axes and moments of inertia in atomic units:
                           1         2         3
     Eigenvalues --   318.17255 767.30888 816.94823
           X            0.99995   0.00001  -0.00967
           Y           -0.00001   1.00000   0.00002
           Z            0.00967  -0.00002   0.99995
 This molecule is an asymmetric top.
 Rotational symmetry number  1.
 Rotational temperatures (Kelvin)      0.27222     0.11288     0.10602
 Rotational constants (GHZ):           5.67221     2.35204     2.20913
 Zero-point vibrational energy     415533.0 (Joules/Mol)
                                   99.31477 (Kcal/Mol)
 Warning -- explicit consideration of  12 degrees of freedom as
           vibrations may cause significant error
 Vibrational temperatures:     80.75    95.25   122.47   187.19   353.85
          (Kelvin)            373.48   419.06   424.32   549.52   568.68
                              603.28   613.20  1227.20  1536.60  1540.45
                             1540.99  1548.52  1621.40  1621.97  1758.15
                             1878.58  1885.76  2071.47  2072.65  2127.83
                             2159.14  2159.62  2164.72  2191.27  2195.56
                             2196.42  2396.08  2438.02  4275.24  4278.80
                             4283.52  4473.23  4473.87  4473.92  4547.32
                             4550.16  4551.18  4926.25  5159.02  5238.28

 Zero-point correction=                           0.158268 (Hartree/Particle)
 Thermal correction to Energy=                    0.167515
 Thermal correction to Enthalpy=                  0.168459
 Thermal correction to Gibbs Free Energy=         0.124677
 Sum of electronic and zero-point Energies=           -230.411099
 Sum of electronic and thermal Energies=              -230.401852
 Sum of electronic and thermal Enthalpies=            -230.400908
 Sum of electronic and thermal Free Energies=         -230.444690

                     E (Thermal)             CV                S
                      KCal/Mol        Cal/Mol-Kelvin    Cal/Mol-Kelvin
 Total                  105.117             30.067             92.147
 Electronic               0.000              0.000              0.000
 Translational            0.889              2.981             38.904
 Rotational               0.889              2.981             26.792
 Vibrational            103.340             24.105             26.451
 Vibration     1          0.596              1.975              4.589
 Vibration     2          0.598              1.970              4.263
 Vibration     3          0.601              1.959              3.769
 Vibration     4          0.612              1.923              2.945
 Vibration     5          0.660              1.769              1.759
 Vibration     6          0.668              1.747              1.665
 Vibration     7          0.687              1.690              1.467
 Vibration     8          0.689              1.683              1.446
 Vibration     9          0.751              1.509              1.031
 Vibration    10          0.762              1.480              0.980
 Vibration    11          0.782              1.428              0.894
 Vibration    12          0.788              1.413              0.871

 SCF Done:  E(RHF) =  -229.556306023     A.U. after    6 cycles
 E2 =    -0.1013053236D+01 EUMP2 =    -0.23056935925893D+03
 E2 =    -0.1013053236D+01 EUMP2 =    -0.23056935925893D+03
 SCF Done:  E(RHF) =  -229.556306031     A.U. after    6 cycles
 E2 =    -0.1013053222D+01 EUMP2 =    -0.23056935925319D+03
 E2 =    -0.1013053222D+01 EUMP2 =    -0.23056935925319D+03
 SCF Done:  E(RHF) =  -229.556305920     A.U. after    6 cycles
 E2 =    -0.1013053300D+01 EUMP2 =    -0.23056935922050D+03
 E2 =    -0.1013053300D+01 EUMP2 =    -0.23056935922050D+03
 SCF Done:  E(RHF) =  -229.556305753     A.U. after    6 cycles
 E2 =    -0.1013053462D+01 EUMP2 =    -0.23056935921476D+03
 E2 =    -0.1013053462D+01 EUMP2 =    -0.23056935921476D+03
 SCF Done:  E(RHF) =  -229.556275115     A.U. after    7 cycles
 E2 =    -0.1013083832D+01 EUMP2 =    -0.23056935894698D+03
 E2 =    -0.1013083832D+01 EUMP2 =    -0.23056935894697D+03
 SCF Done:  E(RHF) =  -229.556335884     A.U. after    7 cycles
 E2 =    -0.1013023593D+01 EUMP2 =    -0.23056935947729D+03
 E2 =    -0.1013023593D+01 EUMP2 =    -0.23056935947729D+03
 SCF Done:  E(RHF) =  -229.556265983     A.U. after    7 cycles
 E2 =    -0.1013092942D+01 EUMP2 =    -0.23056935892503D+03
 E2 =    -0.1013092942D+01 EUMP2 =    -0.23056935892503D+03
 SCF Done:  E(RHF) =  -229.556343903     A.U. after    7 cycles
 E2 =    -0.1013015444D+01 EUMP2 =    -0.23056935934698D+03
 E2 =    -0.1013015444D+01 EUMP2 =    -0.23056935934698D+03
 E2 =    -0.1013045590D+01 EUMP2 =    -0.23056935838572D+03
 E2 =    -0.1013065201D+01 EUMP2 =    -0.23056934829895D+03
 E2 =    -0.1013065201D+01 EUMP2 =    -0.23056934829895D+03
 SCF Done:  E(RHF) =  -229.556292007     A.U. after    6 cycles
 E2 =    -0.1013055530D+01 EUMP2 =    -0.23056934753765D+03
 E2 =    -0.1013055530D+01 EUMP2 =    -0.23056934753765D+03
 SCF Done:  E(RHF) =  -229.556292058     A.U. after    6 cycles
 E2 =    -0.1013055536D+01 EUMP2 =    -0.23056934759450D+03
 E2 =    -0.1013055536D+01 EUMP2 =    -0.23056934759450D+03
 SCF Done:  E(RHF) =  -229.556207108     A.U. after    8 cycles
 E2 =    -0.1013100917D+01 EUMP2 =    -0.23056930802513D+03
 E2 =    -0.1013100917D+01 EUMP2 =    -0.23056930802512D+03
 SCF Done:  E(RHF) =  -229.556301045     A.U. after    7 cycles
 E2 =    -0.1013005518D+01 EUMP2 =    -0.23056930656269D+03
 E2 =    -0.1013005518D+01 EUMP2 =    -0.23056930656269D+03
 SCF Done:  E(RHF) =  -229.556253900     A.U. after    7 cycles
 E2 =    -0.1013053297D+01 EUMP2 =    -0.23056930719715D+03
 E2 =    -0.1013053297D+01 EUMP2 =    -0.23056930719715D+03
 SCF Done:  E(RHF) =  -229.556254124     A.U. after    7 cycles
 E2 =    -0.1013053065D+01 EUMP2 =    -0.23056930718878D+03
 E2 =    -0.1013053065D+01 EUMP2 =    -0.23056930718878D+03
 SCF Done:  E(RHF) =  -229.556004370     A.U. after    8 cycles
 E2 =    -0.1013303118D+01 EUMP2 =    -0.23056930748760D+03
 E2 =    -0.1013303118D+01 EUMP2 =    -0.23056930748760D+03
 SCF Done:  E(RHF) =  -229.556502505     A.U. after    8 cycles
 E2 =    -0.1012804138D+01 EUMP2 =    -0.23056930664337D+03
 E2 =    -0.1012804138D+01 EUMP2 =    -0.23056930664336D+03
 SCF Done:  E(RHF) =  -229.556353813     A.U. after    8 cycles
 E2 =    -0.1012947090D+01 EUMP2 =    -0.23056930090218D+03
 E2 =    -0.1012947090D+01 EUMP2 =    -0.23056930090218D+03

 Alpha  occ. eigenvalues --  -15.55191 -15.52018 -11.24151 -11.23875 -11.23873
 Alpha  occ. eigenvalues --   -1.23106  -1.12179  -0.95344  -0.95017  -0.80978
 Alpha  occ. eigenvalues --   -0.65693  -0.63325  -0.63157  -0.61004  -0.59969
 Alpha  occ. eigenvalues --   -0.54657  -0.54540  -0.51962  -0.50157  -0.50139
 Alpha  occ. eigenvalues --   -0.41180  -0.36404
 Alpha virt. eigenvalues --    0.02842   0.03875   0.03922   0.04132   0.05592
 Alpha virt. eigenvalues --    0.05729   0.05966   0.06031   0.06677   0.07831
 Alpha virt. eigenvalues --    0.08273   0.08482   0.11947   0.12235   0.13094

 Mulliken charges:
               1
     1  N   -0.624456
     2  H    0.376347
     3  H    0.118558
     4  H    0.118608
     5  N    0.085873
     6  C   -0.994497
     7  C   -0.994537
     8  C   -0.968973
     9  H    0.358526
    10  H    0.290754
    11  H    0.303309
    12  H    0.358576
    13  H    0.303333
    14  H    0.290675
    15  H    0.326013
    16  H    0.326002
    17  H    0.325889
 Sum of Mulliken charges =  -0.00000

 Dipole moment (field-independent basis, Debye):
    X=              1.0930    Y=             -0.0010    Z=              0.9087  Tot=              1.4214
 Quadrupole moment (field-independent basis, Debye-Ang):
   XX=            -36.6869   YY=            -33.0714   ZZ=            -36.0290
   XY=              0.0032   XZ=             -2.7741   YZ=              0.0017

  Exact polarizability:      68.243       0.000      62.953       0.038      -0.001      62.702
 Approx polarizability:      51.887       0.000      51.788      -0.337       0.000      51.569

 SCF Done:  E(RHF) =  -229.556143689     A.U. after    8 cycles
