 Gaussian 16, Revision A.03,
 Gaussian 16:  ES64L-G16RevA.03 25-Dec-2016

 ----------------------------------------------
 # mp2/aug-cc-pVDZ opt freq=(vibrot,anharmonic)
 ----------------------------------------------

 ----
 bleh
 ----
 Symbolic Z-matrix:
 Charge =  0 Multiplicity = 1

 SCF Done:  E(RHF) =  -112.413683117     A.U. after   11 cycles
 E2 =    -0.4015695363D+00 EUMP2 =    -0.11281525265312D+03
 SCF Done:  E(RHF) =  -112.412811684     A.U. after    9 cycles
 E2 =    -0.4026982336D+00 EUMP2 =    -0.11281550991793D+03
 SCF Done:  E(RHF) =  -112.412737396     A.U. after    8 cycles
 E2 =    -0.4027909934D+00 EUMP2 =    -0.11281552838919D+03
 SCF Done:  E(RHF) =  -112.412676803     A.U. after    8 cycles
 E2 =    -0.4028565098D+00 EUMP2 =    -0.11281553331295D+03
 SCF Done:  E(RHF) =  -112.412684488     A.U. after    7 cycles
 E2 =    -0.4028499591D+00 EUMP2 =    -0.11281553444672D+03
 SCF Done:  E(RHF) =  -112.412737186     A.U. after    8 cycles
 E2 =    -0.4028013966D+00 EUMP2 =    -0.11281553858229D+03
 SCF Done:  E(RHF) =  -112.412754351     A.U. after    8 cycles
 E2 =    -0.4027853423D+00 EUMP2 =    -0.11281553969329D+03
 SCF Done:  E(RHF) =  -112.412785119     A.U. after    8 cycles
 E2 =    -0.4027568030D+00 EUMP2 =    -0.11281554192240D+03
 SCF Done:  E(RHF) =  -112.412798761     A.U. after    8 cycles
 E2 =    -0.4027451385D+00 EUMP2 =    -0.11281554389942D+03
 SCF Done:  E(RHF) =  -112.412807061     A.U. after    9 cycles
 E2 =    -0.4027401950D+00 EUMP2 =    -0.11281554725647D+03
 E2 =    -0.4027442996D+00 EUMP2 =    -0.11281554981855D+03
 E2 =    -0.4027645338D+00 EUMP2 =    -0.11281555271364D+03
 E2 =    -0.4027924806D+00 EUMP2 =    -0.11281555449361D+03
 E2 =    -0.4027935074D+00 EUMP2 =    -0.11281555508585D+03
 Optimization completed.
    -- Stationary point found.
 Normal termination of Gaussian 16 at Fri Nov 26 10:04:56 2021.

 ----------------------------------------------------------------------
 #N Geom=AllCheck Guess=TCheck SCRF=Check GenChk RMP2(FC)/Aug-CC-pVDZ F
 req
 ----------------------------------------------------------------------

 Structure from the checkpoint file:  "/gscratch/scrubbed/gds001/Gau-16232.chk"
 ----
 bleh
 ----
 Charge =  0 Multiplicity = 1

                         Standard orientation:
 ---------------------------------------------------------------------
 Center     Atomic      Atomic             Coordinates (Angstroms)
 Number     Number       Type             X           Y           Z
 ---------------------------------------------------------------------
      1          7           0       -0.030412    1.692075    0.000000
      2          7           0       -0.030412   -1.570649   -0.000000
      3          1           0        0.205837    0.695423    0.000000
      4          1           0       -1.047125   -1.482462   -0.000000
      5          1           0        0.425844    2.103106    0.814618
      6          1           0        0.425844    2.103106   -0.814618
      7          1           0        0.207687   -2.134575    0.815997
      8          1           0        0.207687   -2.134575   -0.815997
 ---------------------------------------------------------------------

 E2 =    -0.4027935072D+00 EUMP2 =    -0.11281555508564D+03
 E2 =    -0.4027935072D+00 EUMP2 =    -0.11281555508564D+03
 E2 =    -0.4027947756D+00 EUMP2 =    -0.11281555507049D+03
 E2 =    -0.4027947756D+00 EUMP2 =    -0.11281555507049D+03
 E2 =    -0.4027947756D+00 EUMP2 =    -0.11281555507049D+03
 E2 =    -0.4027947756D+00 EUMP2 =    -0.11281555507049D+03
 SCF Done:  E(RHF) =  -112.413098960     A.U. after    8 cycles
 E2 =    -0.4023735345D+00 EUMP2 =    -0.11281547249478D+03
 E2 =    -0.4023735345D+00 EUMP2 =    -0.11281547249478D+03
 SCF Done:  E(RHF) =  -112.412258530     A.U. after    8 cycles
 E2 =    -0.4032158012D+00 EUMP2 =    -0.11281547433113D+03
 E2 =    -0.4032158012D+00 EUMP2 =    -0.11281547433113D+03
 SCF Done:  E(RHF) =  -112.412599519     A.U. after    8 cycles
 E2 =    -0.4028687320D+00 EUMP2 =    -0.11281546825095D+03
 E2 =    -0.4028687320D+00 EUMP2 =    -0.11281546825095D+03
 SCF Done:  E(RHF) =  -112.412749225     A.U. after    9 cycles
 E2 =    -0.4027178692D+00 EUMP2 =    -0.11281546709450D+03
 E2 =    -0.4027178692D+00 EUMP2 =    -0.11281546709450D+03
 SCF Done:  E(RHF) =  -112.412662543     A.U. after    8 cycles
 E2 =    -0.4028026046D+00 EUMP2 =    -0.11281546514768D+03
 E2 =    -0.4028026046D+00 EUMP2 =    -0.11281546514768D+03
 SCF Done:  E(RHF) =  -112.412683967     A.U. after    8 cycles
 E2 =    -0.4027831357D+00 EUMP2 =    -0.11281546710258D+03
 E2 =    -0.4027831357D+00 EUMP2 =    -0.11281546710258D+03
 SCF Done:  E(RHF) =  -112.412673296     A.U. after    8 cycles
 E2 =    -0.4027926530D+00 EUMP2 =    -0.11281546594864D+03
 E2 =    -0.4027926530D+00 EUMP2 =    -0.11281546594864D+03
 SCF Done:  E(RHF) =  -112.412673296     A.U. after    8 cycles
 E2 =    -0.4027926530D+00 EUMP2 =    -0.11281546594864D+03
 E2 =    -0.4027926530D+00 EUMP2 =    -0.11281546594864D+03
 SCF Done:  E(RHF) =  -112.412673122     A.U. after    8 cycles
 E2 =    -0.4027928015D+00 EUMP2 =    -0.11281546592380D+03
 E2 =    -0.4027928015D+00 EUMP2 =    -0.11281546592380D+03
 SCF Done:  E(RHF) =  -112.412673122     A.U. after    8 cycles
 E2 =    -0.4027928015D+00 EUMP2 =    -0.11281546592380D+03
 E2 =    -0.4027928015D+00 EUMP2 =    -0.11281546592380D+03

 Alpha  occ. eigenvalues --  -15.56335 -15.52847  -1.15144  -1.11538  -0.63690
 Alpha  occ. eigenvalues --   -0.63333  -0.60205  -0.60083  -0.44156  -0.40514
 Alpha virt. eigenvalues --    0.03175   0.05305   0.05415   0.06336   0.07487
 Alpha virt. eigenvalues --    0.09111   0.16696   0.17909   0.18909   0.19553
 Alpha virt. eigenvalues --    0.20479   0.22312   0.23275   0.25568   0.28648

 Mulliken charges:
               1
     1  N   -0.024929
     2  N   -0.127818
     3  H    0.042802
     4  H    0.004550
     5  H    0.005095
     6  H    0.011523
     7  H    0.034621
     8  H    0.054156
 Sum of Mulliken charges =  -0.00000

 Dipole moment (field-independent basis, Debye):
    X=              0.7986    Y=             -2.0900    Z=             -0.0047  Tot=              2.2374
 Quadrupole moment (field-independent basis, Debye-Ang):
   XX=            -16.3846   YY=            -12.2455   ZZ=            -13.0246
   XY=              3.2197   XZ=             -0.0092   YZ=              0.0133

  Exact polarizability:  28.056   0.921  31.742  -0.052   0.059  26.116
 Approx polarizability:  21.447   0.104  21.546  -0.044   0.048  21.777

                      1                      2                      3
                     A"                     A'                     A"
 Frequencies --     46.7564                91.4139               111.4123
 Red. masses --      1.0550                 1.2745                 1.0256
 Frc consts  --      0.0014                 0.0063                 0.0075
 IR Inten    --      8.4723                66.0083                41.3872

                      4                      5                      6
                     A'                     A"                     A'
 Frequencies --    149.0332               249.0908               399.0737
 Red. masses --      2.6068                 1.0682                 1.0933
 Frc consts  --      0.0341                 0.0391                 0.1026
 IR Inten    --     26.6661                41.5930                46.9255

                      7                      8                      9
                     A'                     A'                     A'
 Frequencies --   1071.5166              1082.7372              1641.3517
 Red. masses --      1.1714                 1.1728                 1.0649
 Frc consts  --      0.7924                 0.8101                 1.6904
 IR Inten    --    167.0023                88.0802                12.0630

                     10                     11                     12
                     A"                     A'                     A"
 Frequencies --   1649.9602              1654.2041              1673.3680
 Red. masses --      1.0651                 1.0602                 1.0645
 Frc consts  --      1.7084                 1.7094                 1.7561
 IR Inten    --     15.0168                 9.7788                 6.3812

                     13                     14                     15
                     A'                     A'                     A'
 Frequencies --   3446.2137              3476.4455              3596.4916
 Red. masses --      1.0304                 1.0275                 1.0869
 Frc consts  --      7.2102                 7.3162                 8.2830
 IR Inten    --     71.6803                 4.1819                67.9165

                     16                     17                     18
                     A'                     A"                     A"
 Frequencies --   3628.1329              3631.7822              3632.2880
 Red. masses --      1.0889                 1.0884                 1.0886
 Frc consts  --      8.4450                 8.4586                 8.4624
 IR Inten    --      8.4574                 0.2908                 9.2824

 - Thermochemistry -
 -------------------
 Temperature   298.150 Kelvin.  Pressure   1.00000 Atm.
 Atom     1 has atomic number  7 and mass  14.00307

 Molecular mass:    34.05310 amu.
 Principal axes and moments of inertia in atomic units:
                           1         2         3
     Eigenvalues --    15.10462 346.53224 350.56648
           X            0.02747   0.00000   0.99962
           Y            0.99962   0.00000  -0.02747
           Z           -0.00000   1.00000  -0.00000
 This molecule is an asymmetric top.
 Rotational symmetry number  1.
 Rotational temperatures (Kelvin)      5.73427     0.24994     0.24707
 Rotational constants (GHZ):         119.48270     5.20800     5.14807
 Zero-point vibrational energy     186804.5 (Joules/Mol)
                                   44.64735 (Kcal/Mol)
 Warning -- explicit consideration of   6 degrees of freedom as
           vibrations may cause significant error
 Vibrational temperatures:     67.27   131.52   160.30   214.43   358.39
          (Kelvin)            574.18  1541.67  1557.82  2361.54  2373.92
                             2380.03  2407.60  4958.33  5001.83  5174.55
                             5220.07  5225.32  5226.05

 Zero-point correction=                           0.071150 (Hartree/Particle)
 Thermal correction to Energy=                    0.077796
 Thermal correction to Enthalpy=                  0.078741
 Thermal correction to Gibbs Free Energy=         0.042624
 Sum of electronic and zero-point Energies=           -112.744405
 Sum of electronic and thermal Energies=              -112.737759
 Sum of electronic and thermal Enthalpies=            -112.736815
 Sum of electronic and thermal Free Energies=         -112.772931

                     E (Thermal)             CV                S
                      KCal/Mol        Cal/Mol-Kelvin    Cal/Mol-Kelvin
 Total                   48.818             17.749             76.013
 Electronic               0.000              0.000              0.000
 Translational            0.889              2.981             36.507
 Rotational               0.889              2.981             22.133
 Vibrational             47.041             11.787             17.373
 Vibration     1          0.595              1.979              4.950
 Vibration     2          0.602              1.955              3.630
 Vibration     3          0.607              1.940              3.244
 Vibration     4          0.618              1.904              2.685
 Vibration     5          0.662              1.764              1.737
 Vibration     6          0.765              1.472              0.966

 ## DEPERTURBED TRANSITIONS MOMENTS ##

 Electric dipole : Fundamental Bands
 ------------------------------------------------------------------------

 ## AFTER VARIATIONAL CORRECTION

 Electric dipole : Fundamental Bands
 ------------------------------------------------------------------------

                           ! Non-Optimized Parameters !
 Normal termination of Gaussian 16 at Fri Nov 26 10:23:09 2021.
