 Gaussian 16, Revision A.03,
 Gaussian 16:  ES64L-G16RevA.03 25-Dec-2016

 ----------------------------------------------
 # mp2/aug-cc-pVTZ opt freq=(vibrot,anharmonic)
 ----------------------------------------------

 -----------
 NH3 --- NH3
 -----------
 Symbolic Z-matrix:
 Charge =  0 Multiplicity = 1

 SCF Done:  E(RHF) =  -112.443024231     A.U. after   10 cycles
 E2 =    -0.4832942695D+00 EUMP2 =    -0.11292631850045D+03
 Optimization completed.
    -- Stationary point found.
 Normal termination of Gaussian 16 at Fri Jun 25 15:08:36 2021.

 ----------------------------------------------------------------------
 #N Geom=AllCheck Guess=TCheck SCRF=Check GenChk RMP2(FC)/Aug-CC-pVTZ F
 req
 ----------------------------------------------------------------------

 Structure from the checkpoint file:  "nh3_nh3_mp2_avtz_opt_anharm.chk"
 -----------
 NH3 --- NH3
 -----------
 Charge =  0 Multiplicity = 1

                         Standard orientation:
 ---------------------------------------------------------------------
 Center     Atomic      Atomic             Coordinates (Angstroms)
 Number     Number       Type             X           Y           Z
 ---------------------------------------------------------------------
      1          7           0       -0.023231    1.667884   -0.000000
      2          7           0       -0.023231   -1.566277    0.000000
      3          1           0        0.275068    0.696268   -0.000000
      4          1           0       -1.007619   -1.326674    0.000000
      5          1           0        0.392481    2.108669    0.810839
      6          1           0        0.392481    2.108669   -0.810839
      7          1           0        0.136411   -2.149091    0.812343
      8          1           0        0.136411   -2.149091   -0.812343
 ---------------------------------------------------------------------

 SCF Done:  E(RHF) =  -112.443024231     A.U. after    1 cycles
 E2 =    -0.4832942738D+00 EUMP2 =    -0.11292631850472D+03
 E2 =    -0.4832942738D+00 EUMP2 =    -0.11292631850472D+03
 SCF Done:  E(RHF) =  -112.443023181     A.U. after    7 cycles
 E2 =    -0.4832953116D+00 EUMP2 =    -0.11292631849312D+03
 E2 =    -0.4832953116D+00 EUMP2 =    -0.11292631849312D+03
 SCF Done:  E(RHF) =  -112.443023181     A.U. after    7 cycles
 E2 =    -0.4832953116D+00 EUMP2 =    -0.11292631849312D+03
 E2 =    -0.4832953116D+00 EUMP2 =    -0.11292631849312D+03
 SCF Done:  E(RHF) =  -112.443020866     A.U. after    7 cycles
 E2 =    -0.4832976203D+00 EUMP2 =    -0.11292631848602D+03
 E2 =    -0.4832976203D+00 EUMP2 =    -0.11292631848602D+03
 SCF Done:  E(RHF) =  -112.443025538     A.U. after    7 cycles
 E2 =    -0.4832929417D+00 EUMP2 =    -0.11292631847960D+03
 E2 =    -0.4832929417D+00 EUMP2 =    -0.11292631847960D+03
 SCF Done:  E(RHF) =  -112.443023101     A.U. after    7 cycles
 E2 =    -0.4832953272D+00 EUMP2 =    -0.11292631842806D+03
 E2 =    -0.4832953272D+00 EUMP2 =    -0.11292631842806D+03
 SCF Done:  E(RHF) =  -112.443023101     A.U. after    7 cycles
 E2 =    -0.4832953272D+00 EUMP2 =    -0.11292631842806D+03
 E2 =    -0.4832953272D+00 EUMP2 =    -0.11292631842806D+03
 SCF Done:  E(RHF) =  -112.443007762     A.U. after    6 cycles
 E2 =    -0.4833106161D+00 EUMP2 =    -0.11292631837824D+03
 E2 =    -0.4833106161D+00 EUMP2 =    -0.11292631837824D+03
 SCF Done:  E(RHF) =  -112.443040040     A.U. after    6 cycles
 E2 =    -0.4832783311D+00 EUMP2 =    -0.11292631837101D+03
 E2 =    -0.4832783311D+00 EUMP2 =    -0.11292631837101D+03
 E2 =    -0.4832953172D+00 EUMP2 =    -0.11292631811510D+03
 SCF Done:  E(RHF) =  -112.443270021     A.U. after    8 cycles
 E2 =    -0.4829648309D+00 EUMP2 =    -0.11292623485224D+03
 E2 =    -0.4829648309D+00 EUMP2 =    -0.11292623485224D+03
 SCF Done:  E(RHF) =  -112.442609332     A.U. after    8 cycles
 E2 =    -0.4836275517D+00 EUMP2 =    -0.11292623688369D+03
 E2 =    -0.4836275517D+00 EUMP2 =    -0.11292623688369D+03
 SCF Done:  E(RHF) =  -112.442874722     A.U. after    8 cycles
 E2 =    -0.4833558115D+00 EUMP2 =    -0.11292623053372D+03
 E2 =    -0.4833558115D+00 EUMP2 =    -0.11292623053372D+03
 SCF Done:  E(RHF) =  -112.442996486     A.U. after    8 cycles
 E2 =    -0.4832339356D+00 EUMP2 =    -0.11292623042109D+03
 E2 =    -0.4832339356D+00 EUMP2 =    -0.11292623042109D+03
 SCF Done:  E(RHF) =  -112.442923009     A.U. after    8 cycles
 E2 =    -0.4833052365D+00 EUMP2 =    -0.11292622824588D+03
 E2 =    -0.4833052365D+00 EUMP2 =    -0.11292622824588D+03
 SCF Done:  E(RHF) =  -112.442945958     A.U. after    8 cycles
 E2 =    -0.4832836640D+00 EUMP2 =    -0.11292622962251D+03
 E2 =    -0.4832836640D+00 EUMP2 =    -0.11292622962251D+03
 SCF Done:  E(RHF) =  -112.442934315     A.U. after    8 cycles
 E2 =    -0.4832943826D+00 EUMP2 =    -0.11292622869783D+03
 E2 =    -0.4832943826D+00 EUMP2 =    -0.11292622869783D+03
 SCF Done:  E(RHF) =  -112.442934315     A.U. after    8 cycles
 E2 =    -0.4832943826D+00 EUMP2 =    -0.11292622869783D+03
 E2 =    -0.4832943826D+00 EUMP2 =    -0.11292622869783D+03
 SCF Done:  E(RHF) =  -112.442934438     A.U. after    8 cycles
 E2 =    -0.4832942219D+00 EUMP2 =    -0.11292622865974D+03
 E2 =    -0.4832942219D+00 EUMP2 =    -0.11292622865974D+03
 SCF Done:  E(RHF) =  -112.442934438     A.U. after    8 cycles
 E2 =    -0.4832942219D+00 EUMP2 =    -0.11292622865974D+03
 E2 =    -0.4832942219D+00 EUMP2 =    -0.11292622865974D+03

 Alpha  occ. eigenvalues --  -15.54919 -15.51822  -1.15135  -1.11941  -0.63985
 Alpha  occ. eigenvalues --   -0.63699  -0.60856  -0.60477  -0.43958  -0.40750
 Alpha virt. eigenvalues --    0.02687   0.04374   0.04413   0.05304   0.06212
 Alpha virt. eigenvalues --    0.07424   0.13300   0.14283   0.15420   0.15627
 Alpha virt. eigenvalues --    0.16128   0.17747   0.18583   0.20095   0.21683

 Mulliken charges:
               1
     1  N   -0.641332
     2  N   -0.562399
     3  H    0.283965
     4  H    0.194983
     5  H    0.169895
     6  H    0.177133
     7  H    0.188890
     8  H    0.188865
 Sum of Mulliken charges =   0.00000

 Dipole moment (field-independent basis, Debye):
    X=              0.6201    Y=             -1.7869    Z=             -0.0035  Tot=              1.8914
 Quadrupole moment (field-independent basis, Debye-Ang):
   XX=            -16.5304   YY=            -11.6303   ZZ=            -12.8139
   XY=              3.0680   XZ=             -0.0076   YZ=             -0.0160

  Exact polarizability:  28.354   1.274  31.491  -0.061  -0.068  26.208
 Approx polarizability:  21.395   0.130  21.547  -0.054  -0.051  21.676

                      1                      2                      3
                     A"                     A'                     A"
 Frequencies --     48.2022                62.4244               109.2972
 Red. masses --      1.0603                 1.1699                 1.0246
 Frc consts  --      0.0015                 0.0027                 0.0072
 IR Inten    --      2.8234                95.6553                46.7927

                      4                      5                      6
                     A'                     A"                     A'
 Frequencies --    141.2226               241.4393               393.5753
 Red. masses --      3.1604                 1.0619                 1.0929
 Frc consts  --      0.0371                 0.0365                 0.0997
 IR Inten    --     20.4185                42.9053                35.6258

                      7                      8                      9
                     A'                     A'                     A'
 Frequencies --   1059.7187              1073.1869              1660.6015
 Red. masses --      1.1795                 1.1672                 1.0661
 Frc consts  --      0.7804                 0.7920                 1.7321
 IR Inten    --    222.9140                50.7894                14.5475

                     10                     11                     12
                     A"                     A'                     A"
 Frequencies --   1670.2745              1674.2932              1692.4634
 Red. masses --      1.0658                 1.0613                 1.0659
 Frc consts  --      1.7518                 1.7529                 1.7989
 IR Inten    --     13.0662                 7.9564                 8.7089

                     13                     14                     15
                     A'                     A'                     A'
 Frequencies --   3467.0440              3497.0116              3609.2445
 Red. masses --      1.0305                 1.0266                 1.0865
 Frc consts  --      7.2984                 7.3967                 8.3387
 IR Inten    --     67.5664                 3.8075                66.3860

                     16                     17                     18
                     A'                     A"                     A"
 Frequencies --   3640.6765              3645.4632              3646.2360
 Red. masses --      1.0894                 1.0892                 1.0887
 Frc consts  --      8.5076                 8.5281                 8.5284
 IR Inten    --     12.6874                10.7905                 5.1249

 - Thermochemistry -
 -------------------
 Temperature   298.150 Kelvin.  Pressure   1.00000 Atm.
 Atom     1 has atomic number  7 and mass  14.00307

 Molecular mass:    34.05310 amu.
 Principal axes and moments of inertia in atomic units:
                           1         2         3
     Eigenvalues --    14.43516 340.27354 344.80316
           X            0.02802   0.00000   0.99961
           Y            0.99961   0.00000  -0.02802
           Z           -0.00000   1.00000  -0.00000
 This molecule is an asymmetric top.
 Rotational symmetry number  1.
 Rotational temperatures (Kelvin)      6.00021     0.25454     0.25120
 Rotational constants (GHZ):         125.02401     5.30380     5.23412
 Zero-point vibrational energy     187409.2 (Joules/Mol)
                                   44.79188 (Kcal/Mol)
 Warning -- explicit consideration of   6 degrees of freedom as
           vibrations may cause significant error
 Vibrational temperatures:     69.35    89.81   157.25   203.19   347.38
          (Kelvin)            566.27  1524.70  1544.08  2389.24  2403.15
                             2408.93  2435.08  4988.30  5031.42  5192.90
                             5238.12  5245.01  5246.12

 Zero-point correction=                           0.071380 (Hartree/Particle)
 Thermal correction to Energy=                    0.078117
 Thermal correction to Enthalpy=                  0.079061
 Thermal correction to Gibbs Free Energy=         0.042551
 Sum of electronic and zero-point Energies=           -112.854938
 Sum of electronic and thermal Energies=              -112.848201
 Sum of electronic and thermal Enthalpies=            -112.847257
 Sum of electronic and thermal Free Energies=         -112.883767

                     E (Thermal)             CV                S
                      KCal/Mol        Cal/Mol-Kelvin    Cal/Mol-Kelvin
 Total                   49.019             17.808             76.842
 Electronic               0.000              0.000              0.000
 Translational            0.889              2.981             36.507
 Rotational               0.889              2.981             22.054
 Vibrational             47.242             11.846             18.282
 Vibration     1          0.595              1.978              4.890
 Vibration     2          0.597              1.972              4.379
 Vibration     3          0.606              1.942              3.281
 Vibration     4          0.615              1.912              2.787
 Vibration     5          0.658              1.777              1.792
 Vibration     6          0.761              1.484              0.987

 ## DEPERTURBED TRANSITIONS MOMENTS ##

 Electric dipole : Fundamental Bands
 ------------------------------------------------------------------------

 ## AFTER VARIATIONAL CORRECTION

 Electric dipole : Fundamental Bands
 ------------------------------------------------------------------------

 Optimization completed.
    -- Stationary point found.
 Normal termination of Gaussian 16 at Fri Jun 25 19:04:31 2021.
