 Gaussian 16, Revision A.03,
 Gaussian 16:  ES64L-G16RevA.03 25-Dec-2016

 ----------------------------------------------
 # MP2/aug-cc-pVDZ opt freq=(vibrot,anharmonic)
 ----------------------------------------------

 ----
 bleh
 ----
 Symbolic Z-matrix:
 Charge =  0 Multiplicity = 1

 SCF Done:  E(RHF) =  -189.264796925     A.U. after   12 cycles
 E2 =    -0.6734801898D+00 EUMP2 =    -0.18993827711443D+03
 SCF Done:  E(RHF) =  -189.265084687     A.U. after   10 cycles
 E2 =    -0.6748977001D+00 EUMP2 =    -0.18993998238676D+03
 SCF Done:  E(RHF) =  -189.265225959     A.U. after   10 cycles
 E2 =    -0.6750671925D+00 EUMP2 =    -0.18994029315133D+03
 SCF Done:  E(RHF) =  -189.265475838     A.U. after   10 cycles
 E2 =    -0.6749703932D+00 EUMP2 =    -0.18994044623166D+03
 SCF Done:  E(RHF) =  -189.265630656     A.U. after   11 cycles
 E2 =    -0.6748570191D+00 EUMP2 =    -0.18994048767485D+03
 SCF Done:  E(RHF) =  -189.265800493     A.U. after   10 cycles
 E2 =    -0.6747188654D+00 EUMP2 =    -0.18994051935805D+03
 SCF Done:  E(RHF) =  -189.266113873     A.U. after    9 cycles
 E2 =    -0.6744300347D+00 EUMP2 =    -0.18994054390791D+03
 SCF Done:  E(RHF) =  -189.266212819     A.U. after    8 cycles
 E2 =    -0.6743410346D+00 EUMP2 =    -0.18994055385347D+03
 SCF Done:  E(RHF) =  -189.266346633     A.U. after    9 cycles
 E2 =    -0.6742189570D+00 EUMP2 =    -0.18994056558974D+03
 SCF Done:  E(RHF) =  -189.266407633     A.U. after    9 cycles
 E2 =    -0.6741732721D+00 EUMP2 =    -0.18994058090481D+03
 E2 =    -0.6741784340D+00 EUMP2 =    -0.18994061033508D+03
 E2 =    -0.6742621917D+00 EUMP2 =    -0.18994063334429D+03
 E2 =    -0.6744490715D+00 EUMP2 =    -0.18994066016529D+03
 E2 =    -0.6746960907D+00 EUMP2 =    -0.18994067741687D+03
 E2 =    -0.6747210298D+00 EUMP2 =    -0.18994068394164D+03
 E2 =    -0.6747183149D+00 EUMP2 =    -0.18994068571611D+03
 E2 =    -0.6747196126D+00 EUMP2 =    -0.18994068581048D+03
 E2 =    -0.6747286655D+00 EUMP2 =    -0.18994068588021D+03
 E2 =    -0.6747307213D+00 EUMP2 =    -0.18994068589976D+03
 Optimization completed.
    -- Stationary point found.
 Normal termination of Gaussian 16 at Mon Dec 20 09:51:27 2021.

 ----------------------------------------------------------------------
 #N Geom=AllCheck Guess=TCheck SCRF=Check GenChk RMP2(FC)/Aug-CC-pVDZ F
 req
 ----------------------------------------------------------------------

 Structure from the checkpoint file:  "/gscratch/scrubbed/gds001/Gau-31370.chk"
 ----
 bleh
 ----
 Charge =  0 Multiplicity = 1

                         Standard orientation:
 ---------------------------------------------------------------------
 Center     Atomic      Atomic             Coordinates (Angstroms)
 Number     Number       Type             X           Y           Z
 ---------------------------------------------------------------------
      1          7           0        0.677251   -0.000246   -0.845700
      2          1           0       -0.340616   -0.000538   -0.707897
      3          6           0        1.263239   -0.746041    0.298855
      4          6           0        1.262770    0.746311    0.298598
      5          7           0       -2.391467   -0.000117    0.073057
      6          1           0        2.184716   -1.284549    0.068779
      7          1           0        0.574767   -1.252259    0.981288
      8          1           0        0.573980    1.252323    0.980864
      9          1           0        2.183903    1.285326    0.068334
     10          1           0       -2.864133   -0.815180   -0.318716
     11          1           0       -2.606288    0.000413    1.070457
     12          1           0       -2.862874    0.815383   -0.319327
 ---------------------------------------------------------------------

 E2 =    -0.6747307228D+00 EUMP2 =    -0.18994068590130D+03
 SCF Done:  E(RHF) =  -189.265917483     A.U. after    8 cycles
 E2 =    -0.6746962222D+00 EUMP2 =    -0.18994061370514D+03
 E2 =    -0.6746962222D+00 EUMP2 =    -0.18994061370514D+03
 SCF Done:  E(RHF) =  -189.265849352     A.U. after    8 cycles
 E2 =    -0.6747646626D+00 EUMP2 =    -0.18994061401451D+03
 E2 =    -0.6747646626D+00 EUMP2 =    -0.18994061401451D+03
 SCF Done:  E(RHF) =  -189.265439410     A.U. after    9 cycles
 E2 =    -0.6751677846D+00 EUMP2 =    -0.18994060719500D+03
 E2 =    -0.6751677846D+00 EUMP2 =    -0.18994060719500D+03
 SCF Done:  E(RHF) =  -189.266306836     A.U. after    9 cycles
 E2 =    -0.6742965669D+00 EUMP2 =    -0.18994060340285D+03
 E2 =    -0.6742965669D+00 EUMP2 =    -0.18994060340285D+03
 SCF Done:  E(RHF) =  -189.266270746     A.U. after    8 cycles
 E2 =    -0.6743325128D+00 EUMP2 =    -0.18994060325855D+03
 E2 =    -0.6743325128D+00 EUMP2 =    -0.18994060325855D+03
 SCF Done:  E(RHF) =  -189.265474055     A.U. after    8 cycles
 E2 =    -0.6751312704D+00 EUMP2 =    -0.18994060532578D+03
 E2 =    -0.6751312704D+00 EUMP2 =    -0.18994060532578D+03
 SCF Done:  E(RHF) =  -189.265867005     A.U. after    8 cycles
 E2 =    -0.6747300458D+00 EUMP2 =    -0.18994059705053D+03
 E2 =    -0.6747300458D+00 EUMP2 =    -0.18994059705053D+03
 SCF Done:  E(RHF) =  -189.265866903     A.U. after    8 cycles
 E2 =    -0.6747301411D+00 EUMP2 =    -0.18994059704373D+03
 E2 =    -0.6747301411D+00 EUMP2 =    -0.18994059704373D+03
 SCF Done:  E(RHF) =  -189.265871563     A.U. after    8 cycles
 E2 =    -0.6747245585D+00 EUMP2 =    -0.18994059612125D+03
 E2 =    -0.6747245585D+00 EUMP2 =    -0.18994059612125D+03
 SCF Done:  E(RHF) =  -189.265862193     A.U. after    8 cycles
 E2 =    -0.6747355825D+00 EUMP2 =    -0.18994059777532D+03
 E2 =    -0.6747355825D+00 EUMP2 =    -0.18994059777532D+03

 Alpha  occ. eigenvalues --  -15.57227 -15.54285 -11.24734 -11.24664  -1.22890
 Alpha  occ. eigenvalues --   -1.16038  -0.87069  -0.81874  -0.67446  -0.64447
 Alpha  occ. eigenvalues --   -0.64158  -0.61098  -0.51042  -0.47308  -0.45255
 Alpha  occ. eigenvalues --   -0.43684  -0.37288
 Alpha virt. eigenvalues --    0.02938   0.04834   0.04866   0.05316   0.06647
 Alpha virt. eigenvalues --    0.07172   0.08136   0.08550   0.12701   0.13262
 Alpha virt. eigenvalues --    0.14196   0.15327   0.16520   0.18296   0.18735

 Mulliken charges:
               1
     1  N   -0.425107
     2  H    0.079633
     3  C    0.852602
     4  C    0.852717
     5  N   -0.148777
     6  H   -0.318367
     7  H   -0.342639
     8  H   -0.342695
     9  H   -0.318369
    10  H    0.025114
    11  H    0.060827
    12  H    0.025062
 Sum of Mulliken charges =  -0.00000

 Dipole moment (field-independent basis, Debye):
    X=             -2.9075    Y=              0.0012    Z=              1.8949  Tot=              3.4705
 Quadrupole moment (field-independent basis, Debye-Ang):
   XX=            -19.9030   YY=            -25.9225   ZZ=            -30.1880
   XY=             -0.0002   XZ=              1.0706   YZ=             -0.0012

  Exact polarizability:  51.864  -0.003  47.678   0.828   0.000  45.463
 Approx polarizability:  38.217  -0.001  40.930   1.311   0.000  39.487

                      1                      2                      3
                      A                      A                      A
 Frequencies --     33.2747                34.2586                57.4262
 Red. masses --      2.4416                 1.1401                 1.6120
 Frc consts  --      0.0016                 0.0008                 0.0031
 IR Inten    --      2.3847                 1.2049                 1.7668

                      4                      5                      6
                      A                      A                      A
 Frequencies --    146.9883               199.2044               211.6832
 Red. masses --      3.6258                 1.2120                 1.2372
 Frc consts  --      0.0462                 0.0283                 0.0327
 IR Inten    --      1.7368                31.2826                32.6994

                      7                      8                      9
                      A                      A                      A
 Frequencies --    784.8309               841.2101               878.0886
 Red. masses --      1.1012                 8.4813                 3.7530
 Frc consts  --      0.3996                 3.5361                 1.7049
 IR Inten    --     10.7692                 0.0006                45.9144

                     10                     11                     12
                      A                      A                      A
 Frequencies --    938.0659              1041.2322              1088.7996
 Red. masses --      1.0662                 1.1013                 1.3069
 Frc consts  --      0.5528                 0.7035                 0.9128
 IR Inten    --      7.8067                 1.8468                 1.0473

                     13                     14                     15
                      A                      A                      A
 Frequencies --   1092.9229              1097.9178              1153.1739
 Red. masses --      1.1896                 1.2266                 1.1757
 Frc consts  --      0.8372                 0.8711                 0.9212
 IR Inten    --    136.0384                19.2166                 0.9922

                     16                     17                     18
                      A                      A                      A
 Frequencies --   1244.2756              1306.1943              1351.7181
 Red. masses --      2.8748                 1.1946                 1.2708
 Frc consts  --      2.6224                 1.2009                 1.3680
 IR Inten    --      8.9144                 8.2099                 9.2109

                     19                     20                     21
                      A                      A                      A
 Frequencies --   1482.9144              1514.2468              1647.9249
 Red. masses --      1.0786                 1.2805                 1.0636
 Frc consts  --      1.3974                 1.7299                 1.7018
 IR Inten    --      0.0549                 0.4991                14.1611

                     22                     23                     24
                      A                      A                      A
 Frequencies --   1649.3778              3151.9570              3158.9343
 Red. masses --      1.0643                 1.0471                 1.0595
 Frc consts  --      1.7060                 6.1292                 6.2292
 IR Inten    --     16.6631                28.2833                18.1437

                     25                     26                     27
                      A                      A                      A
 Frequencies --   3251.6640              3265.1348              3453.2576
 Red. masses --      1.1205                 1.1201                 1.0743
 Frc consts  --      6.9803                 7.0356                 7.5480
 IR Inten    --      0.5481                33.8481               172.0003

                     28                     29                     30
                      A                      A                      A
 Frequencies --   3475.1272              3625.9791              3628.0168
 Red. masses --      1.0286                 1.0886                 1.0887
 Frc consts  --      7.3189                 8.4327                 8.4427
 IR Inten    --      9.6781                 9.7042                 8.9794

 - Thermochemistry -
 -------------------
 Temperature   298.150 Kelvin.  Pressure   1.00000 Atm.
 Atom     1 has atomic number  7 and mass  14.00307

 Molecular mass:    60.06875 amu.
 Principal axes and moments of inertia in atomic units:
                           1         2         3
     Eigenvalues --   132.77336 622.77057 641.34919
           X            0.99999  -0.00001   0.00426
           Y            0.00001   1.00000  -0.00013
           Z           -0.00426   0.00013   0.99999
 This molecule is an asymmetric top.
 Rotational symmetry number  1.
 Rotational temperatures (Kelvin)      0.65234     0.13908     0.13505
 Rotational constants (GHZ):          13.59265     2.89792     2.81398
 Zero-point vibrational energy     279960.9 (Joules/Mol)
                                   66.91225 (Kcal/Mol)
 Warning -- explicit consideration of   6 degrees of freedom as
           vibrations may cause significant error
 Vibrational temperatures:     47.87    49.29    82.62   211.48   286.61
          (Kelvin)            304.56  1129.20  1210.31  1263.37  1349.67
                             1498.10  1566.54  1572.47  1579.66  1659.16
                             1790.24  1879.32  1944.82  2133.58  2178.66
                             2371.00  2373.09  4534.96  4545.00  4678.42
                             4697.80  4968.47  4999.93  5216.98  5219.91

 Zero-point correction=                           0.106631 (Hartree/Particle)
 Thermal correction to Energy=                    0.114209
 Thermal correction to Enthalpy=                  0.115153
 Thermal correction to Gibbs Free Energy=         0.073627
 Sum of electronic and zero-point Energies=           -189.834054
 Sum of electronic and thermal Energies=              -189.826477
 Sum of electronic and thermal Enthalpies=            -189.825533
 Sum of electronic and thermal Free Energies=         -189.867059

                     E (Thermal)             CV                S
                      KCal/Mol        Cal/Mol-Kelvin    Cal/Mol-Kelvin
 Total                   71.667             21.830             87.398
 Electronic               0.000              0.000              0.000
 Translational            0.889              2.981             38.199
 Rotational               0.889              2.981             25.475
 Vibrational             69.889             15.868             23.724
 Vibration     1          0.594              1.983              5.624
 Vibration     2          0.594              1.983              5.566
 Vibration     3          0.596              1.975              4.544
 Vibration     4          0.617              1.906              2.711
 Vibration     5          0.637              1.841              2.140
 Vibration     6          0.643              1.823              2.029

 ## DEPERTURBED TRANSITIONS MOMENTS ##

 Electric dipole : Fundamental Bands
 ------------------------------------------------------------------------

 ## AFTER VARIATIONAL CORRECTION

 Electric dipole : Fundamental Bands
 ------------------------------------------------------------------------

 Optimization completed.
    -- Stationary point found.
 Normal termination of Gaussian 16 at Mon Dec 20 12:27:29 2021.
