 Gaussian 16, Revision A.03,
 Gaussian 16:  ES64L-G16RevA.03 25-Dec-2016

 ----------------------------------------------
 # MP2/aug-cc-pVTZ opt freq=(vibrot,anharmonic)
 ----------------------------------------------

 ----
 bleh
 ----
 Symbolic Z-matrix:
 Charge =  0 Multiplicity = 1

 SCF Done:  E(RHF) =  -189.311619543     A.U. after   11 cycles
 E2 =    -0.8079503688D+00 EUMP2 =    -0.19011956991210D+03
 SCF Done:  E(RHF) =  -189.314225841     A.U. after    9 cycles
 E2 =    -0.8060978349D+00 EUMP2 =    -0.19012032367592D+03
 SCF Done:  E(RHF) =  -189.314398636     A.U. after    9 cycles
 E2 =    -0.8059522151D+00 EUMP2 =    -0.19012035085087D+03
 SCF Done:  E(RHF) =  -189.314697902     A.U. after    9 cycles
 E2 =    -0.8056695511D+00 EUMP2 =    -0.19012036745324D+03
 SCF Done:  E(RHF) =  -189.314710837     A.U. after    9 cycles
 E2 =    -0.8056595422D+00 EUMP2 =    -0.19012037037966D+03
 SCF Done:  E(RHF) =  -189.314696085     A.U. after    8 cycles
 E2 =    -0.8056750423D+00 EUMP2 =    -0.19012037112745D+03
 SCF Done:  E(RHF) =  -189.314685893     A.U. after    7 cycles
 E2 =    -0.8056856949D+00 EUMP2 =    -0.19012037158770D+03
 SCF Done:  E(RHF) =  -189.314669029     A.U. after    8 cycles
 E2 =    -0.8057030098D+00 EUMP2 =    -0.19012037203865D+03
 SCF Done:  E(RHF) =  -189.314649952     A.U. after    7 cycles
 E2 =    -0.8057225649D+00 EUMP2 =    -0.19012037251648D+03
 SCF Done:  E(RHF) =  -189.314630684     A.U. after    7 cycles
 E2 =    -0.8057422848D+00 EUMP2 =    -0.19012037296831D+03
 E2 =    -0.8057502365D+00 EUMP2 =    -0.19012037325358D+03
 E2 =    -0.8057514386D+00 EUMP2 =    -0.19012037362945D+03
 E2 =    -0.8057432637D+00 EUMP2 =    -0.19012037401963D+03
 E2 =    -0.8057262341D+00 EUMP2 =    -0.19012037437017D+03
 E2 =    -0.8057052160D+00 EUMP2 =    -0.19012037467909D+03
 E2 =    -0.8056956461D+00 EUMP2 =    -0.19012037478268D+03
 Optimization completed.
    -- Stationary point found.
 Normal termination of Gaussian 16 at Mon Dec 20 14:53:25 2021.

 ----------------------------------------------------------------------
 #N Geom=AllCheck Guess=TCheck SCRF=Check GenChk RMP2(FC)/Aug-CC-pVTZ F
 req
 ----------------------------------------------------------------------

 Structure from the checkpoint file:  "/gscratch/scrubbed/gds001/Gau-13055.chk"
 ----
 bleh
 ----
 Charge =  0 Multiplicity = 1

                         Standard orientation:
 ---------------------------------------------------------------------
 Center     Atomic      Atomic             Coordinates (Angstroms)
 Number     Number       Type             X           Y           Z
 ---------------------------------------------------------------------
      1          7           0       -0.630127    0.000271    0.801862
      2          1           0        0.367996    0.000545    0.594684
      3          6           0       -1.307586   -0.740103   -0.275721
      4          6           0       -1.308053    0.739809   -0.276000
      5          7           0        2.437231    0.000065   -0.081897
      6          1           0       -2.196431   -1.272860    0.029054
      7          1           0       -0.689889   -1.239480   -1.010335
      8          1           0       -0.690669    1.239301   -1.010798
      9          1           0       -2.197238    1.272114    0.028570
     10          1           0        2.863975   -0.812862    0.345959
     11          1           0        2.721688    0.000731   -1.053835
     12          1           0        2.864681    0.811926    0.347274
 ---------------------------------------------------------------------

 E2 =    -0.8056956477D+00 EUMP2 =    -0.19012037478427D+03
 E2 =    -0.8056956477D+00 EUMP2 =    -0.19012037478427D+03
 E2 =    -0.8056965924D+00 EUMP2 =    -0.19012037478200D+03
 E2 =    -0.8056965924D+00 EUMP2 =    -0.19012037478200D+03
 SCF Done:  E(RHF) =  -189.314582746     A.U. after    8 cycles
 E2 =    -0.8057201568D+00 EUMP2 =    -0.19012030290293D+03
 E2 =    -0.8057201568D+00 EUMP2 =    -0.19012030290293D+03
 SCF Done:  E(RHF) =  -189.314629962     A.U. after    8 cycles
 E2 =    -0.8056729565D+00 EUMP2 =    -0.19012030291837D+03
 E2 =    -0.8056729565D+00 EUMP2 =    -0.19012030291837D+03
 SCF Done:  E(RHF) =  -189.314985490     A.U. after    8 cycles
 E2 =    -0.8053063141D+00 EUMP2 =    -0.19012029180400D+03
 E2 =    -0.8053063141D+00 EUMP2 =    -0.19012029180400D+03
 SCF Done:  E(RHF) =  -189.314206284     A.U. after    8 cycles
 E2 =    -0.8060892427D+00 EUMP2 =    -0.19012029552701D+03
 E2 =    -0.8060892427D+00 EUMP2 =    -0.19012029552701D+03
 SCF Done:  E(RHF) =  -189.314271224     A.U. after    8 cycles
 E2 =    -0.8060213450D+00 EUMP2 =    -0.19012029256895D+03
 E2 =    -0.8060213450D+00 EUMP2 =    -0.19012029256895D+03
 SCF Done:  E(RHF) =  -189.314918024     A.U. after    8 cycles
 E2 =    -0.8053737161D+00 EUMP2 =    -0.19012029174037D+03
 E2 =    -0.8053737161D+00 EUMP2 =    -0.19012029174037D+03
 SCF Done:  E(RHF) =  -189.314589448     A.U. after    7 cycles
 E2 =    -0.8056957897D+00 EUMP2 =    -0.19012028523741D+03
 E2 =    -0.8056957897D+00 EUMP2 =    -0.19012028523741D+03
 SCF Done:  E(RHF) =  -189.314589448     A.U. after    7 cycles
 E2 =    -0.8056957818D+00 EUMP2 =    -0.19012028522988D+03
 E2 =    -0.8056957818D+00 EUMP2 =    -0.19012028522988D+03
 SCF Done:  E(RHF) =  -189.314585518     A.U. after    7 cycles
 E2 =    -0.8057004032D+00 EUMP2 =    -0.19012028592102D+03
 E2 =    -0.8057004032D+00 EUMP2 =    -0.19012028592102D+03
 SCF Done:  E(RHF) =  -189.314593253     A.U. after    7 cycles
 E2 =    -0.8056911185D+00 EUMP2 =    -0.19012028437175D+03
 E2 =    -0.8056911185D+00 EUMP2 =    -0.19012028437175D+03

 Alpha  occ. eigenvalues --  -15.55895 -15.53135 -11.23661 -11.23586  -1.23451
 Alpha  occ. eigenvalues --   -1.16108  -0.87289  -0.82180  -0.68045  -0.64867
 Alpha  occ. eigenvalues --   -0.64436  -0.61674  -0.51325  -0.47425  -0.45649
 Alpha  occ. eigenvalues --   -0.43611  -0.37337
 Alpha virt. eigenvalues --    0.02414   0.03952   0.04063   0.04376   0.05575
 Alpha virt. eigenvalues --    0.05902   0.06729   0.07087   0.10510   0.11129
 Alpha virt. eigenvalues --    0.11893   0.12595   0.13264   0.14496   0.15218

 Mulliken charges:
               1
     1  N   -0.505954
     2  H    0.316100
     3  C   -0.682723
     4  C   -0.682773
     5  N   -0.462059
     6  H    0.412793
     7  H    0.357877
     8  H    0.357790
     9  H    0.412871
    10  H    0.157638
    11  H    0.160850
    12  H    0.157590
 Sum of Mulliken charges =  -0.00000

 Dipole moment (field-independent basis, Debye):
    X=              2.7714    Y=             -0.0006    Z=             -1.8032  Tot=              3.3064
 Quadrupole moment (field-independent basis, Debye-Ang):
   XX=            -19.2574   YY=            -25.4910   ZZ=            -29.5729
   XY=              0.0003   XZ=              0.7851   YZ=             -0.0011

  Exact polarizability:  51.595  -0.002  47.117   1.286   0.000  44.460
 Approx polarizability:  37.888  -0.000  40.310   1.436   0.000  38.441

                      1                      2                      3
                      A                      A                      A
 Frequencies --     22.7569                40.0807                53.8890
 Red. masses --      1.0695                 2.4264                 1.8125
 Frc consts  --      0.0003                 0.0023                 0.0031
 IR Inten    --      0.6657                 4.2969                 2.7719

                      4                      5                      6
                      A                      A                      A
 Frequencies --    144.8399               198.4824               211.6612
 Red. masses --      3.5180                 1.2302                 1.2271
 Frc consts  --      0.0435                 0.0286                 0.0324
 IR Inten    --      2.0423                30.0334                32.6681

                      7                      8                      9
                      A                      A                      A
 Frequencies --    795.3383               862.1706               890.7957
 Red. masses --      1.1036                 8.4897                 3.7158
 Frc consts  --      0.4113                 3.7182                 1.7372
 IR Inten    --     11.2998                 0.0016                48.6739

                     10                     11                     12
                      A                      A                      A
 Frequencies --    950.1121              1050.5981              1077.8263
 Red. masses --      1.0652                 1.1002                 1.1826
 Frc consts  --      0.5665                 0.7155                 0.8094
 IR Inten    --      8.0546                 3.3261               152.2943

                     13                     14                     15
                      A                      A                      A
 Frequencies --   1108.4030              1112.3096              1166.1235
 Red. masses --      1.3076                 1.2364                 1.1756
 Frc consts  --      0.9465                 0.9013                 0.9419
 IR Inten    --      1.2752                 7.5379                 0.8594

                     16                     17                     18
                      A                      A                      A
 Frequencies --   1252.1303              1319.0635              1360.1238
 Red. masses --      2.9687                 1.1934                 1.2728
 Frc consts  --      2.7423                 1.2234                 1.3873
 IR Inten    --     10.5936                 8.0695                 8.1352

                     19                     20                     21
                      A                      A                      A
 Frequencies --   1501.2355              1530.8044              1667.3825
 Red. masses --      1.0790                 1.2622                 1.0649
 Frc consts  --      1.4328                 1.7427                 1.7443
 IR Inten    --      0.1759                 0.5625                15.7063

                     22                     23                     24
                      A                      A                      A
 Frequencies --   1668.4804              3154.1107              3160.6403
 Red. masses --      1.0655                 1.0468                 1.0584
 Frc consts  --      1.7477                 6.1359                 6.2296
 IR Inten    --     16.7231                25.0323                18.0110

                     25                     26                     27
                      A                      A                      A
 Frequencies --   3248.3002              3261.2942              3464.2777
 Red. masses --      1.1209                 1.1202                 1.0748
 Frc consts  --      6.9686                 7.0198                 7.5995
 IR Inten    --      0.5026                27.6428               213.9711

                     28                     29                     30
                      A                      A                      A
 Frequencies --   3496.7635              3640.2190              3641.8948
 Red. masses --      1.0275                 1.0892                 1.0892
 Frc consts  --      7.4024                 8.5037                 8.5116
 IR Inten    --      7.8580                14.0081                13.1153

 - Thermochemistry -
 -------------------
 Temperature   298.150 Kelvin.  Pressure   1.00000 Atm.
 Atom     1 has atomic number  7 and mass  14.00307

 Molecular mass:    60.06875 amu.
 Principal axes and moments of inertia in atomic units:
                           1         2         3
     Eigenvalues --   126.70938 639.64172 661.71108
           X            0.99999  -0.00000   0.00344
           Y            0.00000   1.00000  -0.00012
           Z           -0.00344   0.00012   0.99999
 This molecule is an asymmetric top.
 Rotational symmetry number  1.
 Rotational temperatures (Kelvin)      0.68356     0.13541     0.13089
 Rotational constants (GHZ):          14.24315     2.82149     2.72739
 Zero-point vibrational energy     281434.1 (Joules/Mol)
                                   67.26437 (Kcal/Mol)
 Warning -- explicit consideration of   6 degrees of freedom as
           vibrations may cause significant error
 Vibrational temperatures:     32.74    57.67    77.53   208.39   285.57
          (Kelvin)            304.53  1144.31  1240.47  1281.66  1367.00
                             1511.58  1550.75  1594.74  1600.37  1677.79
                             1801.54  1897.84  1956.91  2159.94  2202.49
                             2398.99  2400.57  4538.06  4547.46  4673.58
                             4692.27  4984.32  5031.06  5237.46  5239.87

 Zero-point correction=                           0.107193 (Hartree/Particle)
 Thermal correction to Energy=                    0.114773
 Thermal correction to Enthalpy=                  0.115717
 Thermal correction to Gibbs Free Energy=         0.073924
 Sum of electronic and zero-point Energies=           -190.013182
 Sum of electronic and thermal Energies=              -190.005602
 Sum of electronic and thermal Enthalpies=            -190.004658
 Sum of electronic and thermal Free Energies=         -190.046450

                     E (Thermal)             CV                S
                      KCal/Mol        Cal/Mol-Kelvin    Cal/Mol-Kelvin
 Total                   72.021             21.690             87.960
 Electronic               0.000              0.000              0.000
 Translational            0.889              2.981             38.199
 Rotational               0.889              2.981             25.487
 Vibrational             70.244             15.729             24.275
 Vibration     1          0.593              1.985              6.378
 Vibration     2          0.594              1.981              5.255
 Vibration     3          0.596              1.976              4.669
 Vibration     4          0.616              1.908              2.739
 Vibration     5          0.637              1.842              2.147
 Vibration     6          0.643              1.823              2.029

 ## DEPERTURBED TRANSITIONS MOMENTS ##

 Electric dipole : Fundamental Bands
 ------------------------------------------------------------------------

 ## AFTER VARIATIONAL CORRECTION

 Electric dipole : Fundamental Bands
 ------------------------------------------------------------------------

 Optimization completed.
    -- Stationary point found.
 Normal termination of Gaussian 16 at Wed Dec 22 17:01:52 2021.
