 Gaussian 16, Revision A.03,
 Gaussian 16:  ES64L-G16RevA.03 25-Dec-2016

 ---------------------------------------------
 # MP2/aug-cc-pVDZ Opt Freq(vibrot,anharmonic)
 ---------------------------------------------

 --------
 meoh_h2o
 --------
 Symbolic Z-matrix:
 Charge =  0 Multiplicity = 1

 SCF Done:  E(RHF) =  -191.103771828     A.U. after   11 cycles
 E2 =    -0.5853027905D+00 EUMP2 =    -0.19168907461805D+03
 SCF Done:  E(RHF) =  -191.105247985     A.U. after   10 cycles
 E2 =    -0.5853385745D+00 EUMP2 =    -0.19169058655954D+03
 SCF Done:  E(RHF) =  -191.106039123     A.U. after    9 cycles
 E2 =    -0.5848159656D+00 EUMP2 =    -0.19169085508904D+03
 SCF Done:  E(RHF) =  -191.107137722     A.U. after    9 cycles
 E2 =    -0.5840135251D+00 EUMP2 =    -0.19169115124757D+03
 SCF Done:  E(RHF) =  -191.107232660     A.U. after    9 cycles
 E2 =    -0.5839740274D+00 EUMP2 =    -0.19169120668723D+03
 SCF Done:  E(RHF) =  -191.107193636     A.U. after    9 cycles
 E2 =    -0.5840474189D+00 EUMP2 =    -0.19169124105531D+03
 SCF Done:  E(RHF) =  -191.107140130     A.U. after    9 cycles
 E2 =    -0.5841263024D+00 EUMP2 =    -0.19169126643193D+03
 SCF Done:  E(RHF) =  -191.107003517     A.U. after   10 cycles
 E2 =    -0.5843429873D+00 EUMP2 =    -0.19169134650444D+03
 SCF Done:  E(RHF) =  -191.106935183     A.U. after   10 cycles
 E2 =    -0.5844557264D+00 EUMP2 =    -0.19169139090967D+03
 SCF Done:  E(RHF) =  -191.106886646     A.U. after   10 cycles
 E2 =    -0.5844995275D+00 EUMP2 =    -0.19169138617389D+03
 E2 =    -0.5844092913D+00 EUMP2 =    -0.19169140034396D+03
 E2 =    -0.5843833339D+00 EUMP2 =    -0.19169140009013D+03
 E2 =    -0.5843578267D+00 EUMP2 =    -0.19169140134315D+03
 E2 =    -0.5843594159D+00 EUMP2 =    -0.19169140137129D+03
 E2 =    -0.5843603463D+00 EUMP2 =    -0.19169140139097D+03
 Optimization completed.
    -- Stationary point found.
 Normal termination of Gaussian 16 at Thu Aug  6 20:13:38 2020.

 ----------------------------------------------------------------------
 #N Geom=AllCheck Guess=TCheck SCRF=Check GenChk RMP2(FC)/Aug-CC-pVDZ F
 req
 ----------------------------------------------------------------------

 Structure from the checkpoint file:  "meoh_h2o.chk"
 --------
 meoh_h2o
 --------
 Charge =  0 Multiplicity = 1

                         Standard orientation:
 ---------------------------------------------------------------------
 Center     Atomic      Atomic             Coordinates (Angstroms)
 Number     Number       Type             X           Y           Z
 ---------------------------------------------------------------------
      1          8           0       -2.018686   -0.221568   -0.000470
      2          1           0       -2.507716    0.115848    0.762043
      3          1           0       -2.498134    0.128124   -0.763567
      4          8           0        0.739962    0.712297    0.000967
      5          6           0        1.626829   -0.408704   -0.000518
      6          1           0       -0.168954    0.368425    0.003600
      7          1           0        2.649882   -0.008801   -0.004625
      8          1           0        1.493750   -1.039885   -0.896719
      9          1           0        1.499985   -1.037314    0.898394
 ---------------------------------------------------------------------

 E2 =    -0.5843603465D+00 EUMP2 =    -0.19169140139117D+03
 E2 =    -0.5843603465D+00 EUMP2 =    -0.19169140139117D+03
 E2 =    -0.5843592168D+00 EUMP2 =    -0.19169140136020D+03
 E2 =    -0.5843592168D+00 EUMP2 =    -0.19169140136020D+03
 E2 =    -0.5843622784D+00 EUMP2 =    -0.19169140136752D+03
 SCF Done:  E(RHF) =  -191.106976149     A.U. after    8 cycles
 E2 =    -0.5843598040D+00 EUMP2 =    -0.19169133595263D+03
 E2 =    -0.5843598040D+00 EUMP2 =    -0.19169133595263D+03
 SCF Done:  E(RHF) =  -191.106975922     A.U. after    8 cycles
 E2 =    -0.5843600335D+00 EUMP2 =    -0.19169133595531D+03
 E2 =    -0.5843600335D+00 EUMP2 =    -0.19169133595531D+03
 SCF Done:  E(RHF) =  -191.106903327     A.U. after    8 cycles
 E2 =    -0.5844310908D+00 EUMP2 =    -0.19169133441789D+03
 E2 =    -0.5844310908D+00 EUMP2 =    -0.19169133441789D+03
 SCF Done:  E(RHF) =  -191.107043787     A.U. after    8 cycles
 E2 =    -0.5842884394D+00 EUMP2 =    -0.19169133222633D+03
 E2 =    -0.5842884394D+00 EUMP2 =    -0.19169133222633D+03
 SCF Done:  E(RHF) =  -191.107532740     A.U. after    9 cycles
 E2 =    -0.5837726811D+00 EUMP2 =    -0.19169130542079D+03
 E2 =    -0.5837726811D+00 EUMP2 =    -0.19169130542079D+03
 SCF Done:  E(RHF) =  -191.106359802     A.U. after    9 cycles
 E2 =    -0.5849502530D+00 EUMP2 =    -0.19169131005488D+03
 E2 =    -0.5849502530D+00 EUMP2 =    -0.19169131005488D+03
 SCF Done:  E(RHF) =  -191.107512579     A.U. after    9 cycles
 E2 =    -0.5837898226D+00 EUMP2 =    -0.19169130240171D+03
 E2 =    -0.5837898226D+00 EUMP2 =    -0.19169130240171D+03
 SCF Done:  E(RHF) =  -191.106371938     A.U. after    9 cycles
 E2 =    -0.5849337683D+00 EUMP2 =    -0.19169130570612D+03
 E2 =    -0.5849337683D+00 EUMP2 =    -0.19169130570612D+03
 SCF Done:  E(RHF) =  -191.106937049     A.U. after    8 cycles
 E2 =    -0.5843603133D+00 EUMP2 =    -0.19169129736228D+03
 E2 =    -0.5843603133D+00 EUMP2 =    -0.19169129736228D+03
 SCF Done:  E(RHF) =  -191.106938519     A.U. after    8 cycles
 E2 =    -0.5843587764D+00 EUMP2 =    -0.19169129729526D+03
 E2 =    -0.5843587764D+00 EUMP2 =    -0.19169129729526D+03

 Alpha  occ. eigenvalues --  -20.60473 -20.54020 -11.26568  -1.38052  -1.32949
 Alpha  occ. eigenvalues --   -0.90344  -0.73965  -0.67373  -0.61015  -0.59539
 Alpha  occ. eigenvalues --   -0.56937  -0.53735  -0.47812  -0.42634
 Alpha virt. eigenvalues --    0.02802   0.04865   0.05219   0.06887   0.07381
 Alpha virt. eigenvalues --    0.08347   0.12914   0.16044   0.16220   0.17667
 Alpha virt. eigenvalues --    0.18615   0.21229   0.21517   0.22949   0.25939

 Mulliken charges:
               1
     1  O   -0.311179
     2  H    0.141105
     3  H    0.158395
     4  O   -0.480041
     5  C    0.830011
     6  H    0.140491
     7  H   -0.216542
     8  H   -0.131189
     9  H   -0.131050
 Sum of Mulliken charges =  -0.00000

 Dipole moment (field-independent basis, Debye):
    X=             -2.6799    Y=             -0.6389    Z=             -0.0128  Tot=              2.7551
 Quadrupole moment (field-independent basis, Debye-Ang):
   XX=            -11.8146   YY=            -23.5299   ZZ=            -18.7841
   XY=             -4.3611   XZ=              0.0262   YZ=             -0.0397

  Exact polarizability:  34.678  -1.475  29.917   0.056  -0.041  28.981
 Approx polarizability:  24.521  -0.773  23.399   0.036  -0.049  23.745

                      1                      2                      3
                      A                      A                      A
 Frequencies --     63.7630                71.1906                83.6784
 Red. masses --      2.6305                 1.0534                 1.0721
 Frc consts  --      0.0063                 0.0031                 0.0044
 IR Inten    --     31.6767                41.2872                16.6393

                      4                      5                      6
                      A                      A                      A
 Frequencies --    163.3301               187.9343               244.7972
 Red. masses --      3.2923                 1.1017                 1.4616
 Frc consts  --      0.0517                 0.0229                 0.0516
 IR Inten    --     12.2783                 0.4015               192.1422

                      7                      8                      9
                      A                      A                      A
 Frequencies --    681.6568              1063.0972              1108.6097
 Red. masses --      1.0427                 6.7658                 1.1541
 Frc consts  --      0.2854                 4.5052                 0.8357
 IR Inten    --    101.7855                94.9641                 7.2882

                     10                     11                     12
                      A                      A                      A
 Frequencies --   1169.5166              1424.2997              1462.7283
 Red. masses --      1.2693                 1.2214                 1.1331
 Frc consts  --      1.0229                 1.4599                 1.4284
 IR Inten    --      0.5662                28.7374                 6.2963

                     13                     14                     15
                      A                      A                      A
 Frequencies --   1492.0873              1506.5654              1624.4961
 Red. masses --      1.0476                 1.0378                 1.0822
 Frc consts  --      1.3741                 1.3879                 1.6826
 IR Inten    --      2.1670                 3.0803                69.1244

                     16                     17                     18
                      A                      A                      A
 Frequencies --   3039.9296              3111.7499              3173.5816
 Red. masses --      1.0339                 1.1051                 1.1005
 Frc consts  --      5.6293                 6.3049                 6.5304
 IR Inten    --     69.6246                54.3257                33.7962

                     19                     20                     21
                      A                      A                      A
 Frequencies --   3722.1954              3795.0714              3923.9085
 Red. masses --      1.0671                 1.0457                 1.0813
 Frc consts  --      8.7110                 8.8733                 9.8091
 IR Inten    --    405.6623                 6.1999                87.9266

 - Thermochemistry -
 -------------------
 Temperature   298.150 Kelvin.  Pressure   1.00000 Atm.
 Atom     1 has atomic number  8 and mass  15.99491

 Molecular mass:    50.03678 amu.
 Principal axes and moments of inertia in atomic units:
                           1         2         3
     Eigenvalues --    56.70070 474.45820 511.18433
           X            0.99948  -0.03236  -0.00004
           Y            0.03236   0.99948  -0.00071
           Z            0.00007   0.00071   1.00000
 This molecule is an asymmetric top.
 Rotational symmetry number  1.
 Rotational temperatures (Kelvin)      1.52756     0.18255     0.16944
 Rotational constants (GHZ):          31.82926     3.80379     3.53051
 Zero-point vibrational energy     198066.8 (Joules/Mol)
                                   47.33911 (Kcal/Mol)
 Warning -- explicit consideration of   6 degrees of freedom as
           vibrations may cause significant error
 Vibrational temperatures:     91.74   102.43   120.39   235.00   270.40
          (Kelvin)            352.21   980.75  1529.56  1595.04  1682.67
                             2049.25  2104.54  2146.78  2167.61  2337.29
                             4373.78  4477.11  4566.08  5355.41  5460.26
                             5645.63

 Zero-point correction=                           0.075440 (Hartree/Particle)
 Thermal correction to Energy=                    0.082548
 Thermal correction to Enthalpy=                  0.083492
 Thermal correction to Gibbs Free Energy=         0.044938
 Sum of electronic and zero-point Energies=           -191.615962
 Sum of electronic and thermal Energies=              -191.608854
 Sum of electronic and thermal Enthalpies=            -191.607909
 Sum of electronic and thermal Free Energies=         -191.646464

                     E (Thermal)             CV                S
                      KCal/Mol        Cal/Mol-Kelvin    Cal/Mol-Kelvin
 Total                   51.799             19.434             81.144
 Electronic               0.000              0.000              0.000
 Translational            0.889              2.981             37.654
 Rotational               0.889              2.981             24.134
 Vibrational             50.022             13.473             19.355
 Vibration     1          0.597              1.972              4.337
 Vibration     2          0.598              1.968              4.120
 Vibration     3          0.601              1.960              3.803
 Vibration     4          0.623              1.887              2.511
 Vibration     5          0.633              1.856              2.248
 Vibration     6          0.660              1.771              1.768

 ## DEPERTURBED TRANSITIONS MOMENTS ##

 Electric dipole : Fundamental Bands
 ------------------------------------------------------------------------

 ## AFTER VARIATIONAL CORRECTION

 Electric dipole : Fundamental Bands
 ------------------------------------------------------------------------

                           ! Non-Optimized Parameters !
 Normal termination of Gaussian 16 at Thu Aug  6 20:54:00 2020.
