 Gaussian 16, Revision A.03,
 Gaussian 16:  ES64L-G16RevA.03 25-Dec-2016

 ----------------------------------------------
 # MP2/aug-cc-pVTZ opt freq=(vibrot,anharmonic)
 ----------------------------------------------

 ----
 bleh
 ----
 Symbolic Z-matrix:
 Charge =  0 Multiplicity = 1

 SCF Done:  E(RHF) =  -191.155964424     A.U. after   11 cycles
 E2 =    -0.7100252246D+00 EUMP2 =    -0.19186598964815D+03
 SCF Done:  E(RHF) =  -191.157461924     A.U. after    8 cycles
 E2 =    -0.7089077426D+00 EUMP2 =    -0.19186636966710D+03
 SCF Done:  E(RHF) =  -191.157556058     A.U. after    7 cycles
 E2 =    -0.7088201874D+00 EUMP2 =    -0.19186637624520D+03
 SCF Done:  E(RHF) =  -191.157580383     A.U. after    7 cycles
 E2 =    -0.7087966536D+00 EUMP2 =    -0.19186637703639D+03
 Optimization completed.
    -- Stationary point found.
 Normal termination of Gaussian 16 at Mon Dec 20 12:17:06 2021.

 ----------------------------------------------------------------------
 #N Geom=AllCheck Guess=TCheck SCRF=Check GenChk RMP2(FC)/Aug-CC-pVTZ F
 req
 ----------------------------------------------------------------------

 Structure from the checkpoint file:  "/gscratch/scrubbed/gds001/Gau-26605.chk"
 ----
 bleh
 ----
 Charge =  0 Multiplicity = 1

                         Standard orientation:
 ---------------------------------------------------------------------
 Center     Atomic      Atomic             Coordinates (Angstroms)
 Number     Number       Type             X           Y           Z
 ---------------------------------------------------------------------
      1          8           0       -2.014745   -0.219279   -0.000470
      2          1           0       -2.499355    0.115420    0.760557
      3          1           0       -2.490863    0.127002   -0.761697
      4          8           0        0.739850    0.705923    0.000897
      5          6           0        1.621914   -0.405198   -0.000465
      6          1           0       -0.165268    0.364825    0.003178
      7          1           0        2.634907   -0.011049   -0.004033
      8          1           0        1.491403   -1.030157   -0.886924
      9          1           0        1.496844   -1.028007    0.888292
 ---------------------------------------------------------------------

 SCF Done:  E(RHF) =  -191.157580383     A.U. after    1 cycles
 E2 =    -0.7087966520D+00 EUMP2 =    -0.19186637703480D+03
 E2 =    -0.7087966520D+00 EUMP2 =    -0.19186637703480D+03
 SCF Done:  E(RHF) =  -191.157581387     A.U. after    7 cycles
 E2 =    -0.7087955278D+00 EUMP2 =    -0.19186637691517D+03
 E2 =    -0.7087955278D+00 EUMP2 =    -0.19186637691517D+03
 SCF Done:  E(RHF) =  -191.157578576     A.U. after    7 cycles
 E2 =    -0.7087985243D+00 EUMP2 =    -0.19186637710011D+03
 E2 =    -0.7087985243D+00 EUMP2 =    -0.19186637710011D+03
 SCF Done:  E(RHF) =  -191.157578819     A.U. after    7 cycles
 E2 =    -0.7087982305D+00 EUMP2 =    -0.19186637704986D+03
 E2 =    -0.7087982305D+00 EUMP2 =    -0.19186637704986D+03
 SCF Done:  E(RHF) =  -191.157578563     A.U. after    7 cycles
 E2 =    -0.7087983908D+00 EUMP2 =    -0.19186637695336D+03
 E2 =    -0.7087983908D+00 EUMP2 =    -0.19186637695336D+03
 SCF Done:  E(RHF) =  -191.157579454     A.U. after    6 cycles
 E2 =    -0.7087975999D+00 EUMP2 =    -0.19186637705364D+03
 E2 =    -0.7087975999D+00 EUMP2 =    -0.19186637705364D+03
 E2 =    -0.7087975886D+00 EUMP2 =    -0.19186637692867D+03
 E2 =    -0.7087975886D+00 EUMP2 =    -0.19186637692867D+03
 E2 =    -0.7088136533D+00 EUMP2 =    -0.19186637684918D+03
 E2 =    -0.7088136533D+00 EUMP2 =    -0.19186637684918D+03
 SCF Done:  E(RHF) =  -191.157514560     A.U. after    7 cycles
 E2 =    -0.7087971615D+00 EUMP2 =    -0.19186631172102D+03
 E2 =    -0.7087971615D+00 EUMP2 =    -0.19186631172102D+03
 SCF Done:  E(RHF) =  -191.157514440     A.U. after    7 cycles
 E2 =    -0.7087972786D+00 EUMP2 =    -0.19186631171887D+03
 E2 =    -0.7087972786D+00 EUMP2 =    -0.19186631171887D+03
 SCF Done:  E(RHF) =  -191.157468357     A.U. after    8 cycles
 E2 =    -0.7088420831D+00 EUMP2 =    -0.19186631043981D+03
 E2 =    -0.7088420831D+00 EUMP2 =    -0.19186631043981D+03
 SCF Done:  E(RHF) =  -191.157555773     A.U. after    8 cycles
 E2 =    -0.7087521715D+00 EUMP2 =    -0.19186630794420D+03
 E2 =    -0.7087521715D+00 EUMP2 =    -0.19186630794420D+03
 SCF Done:  E(RHF) =  -191.158041311     A.U. after    8 cycles
 E2 =    -0.7082376274D+00 EUMP2 =    -0.19186627893814D+03
 E2 =    -0.7082376274D+00 EUMP2 =    -0.19186627893814D+03
 SCF Done:  E(RHF) =  -191.156928218     A.U. after    8 cycles
 E2 =    -0.7093580050D+00 EUMP2 =    -0.19186628622309D+03
 E2 =    -0.7093580050D+00 EUMP2 =    -0.19186628622309D+03
 SCF Done:  E(RHF) =  -191.157991375     A.U. after    8 cycles
 E2 =    -0.7082856630D+00 EUMP2 =    -0.19186627703805D+03
 E2 =    -0.7082856630D+00 EUMP2 =    -0.19186627703805D+03
 SCF Done:  E(RHF) =  -191.156969765     A.U. after    8 cycles
 E2 =    -0.7093106993D+00 EUMP2 =    -0.19186628046423D+03
 E2 =    -0.7093106993D+00 EUMP2 =    -0.19186628046423D+03
 SCF Done:  E(RHF) =  -191.157475804     A.U. after    7 cycles
 E2 =    -0.7087966306D+00 EUMP2 =    -0.19186627243441D+03
 E2 =    -0.7087966306D+00 EUMP2 =    -0.19186627243441D+03
 SCF Done:  E(RHF) =  -191.157477029     A.U. after    7 cycles
 E2 =    -0.7087953483D+00 EUMP2 =    -0.19186627237714D+03
 E2 =    -0.7087953483D+00 EUMP2 =    -0.19186627237714D+03

 Alpha  occ. eigenvalues --  -20.59339 -20.52951 -11.25258  -1.37953  -1.33021
 Alpha  occ. eigenvalues --   -0.90572  -0.74144  -0.67634  -0.61024  -0.59968
 Alpha  occ. eigenvalues --   -0.57273  -0.53862  -0.47876  -0.42730
 Alpha virt. eigenvalues --    0.02274   0.04137   0.04272   0.05565   0.06099
 Alpha virt. eigenvalues --    0.06824   0.10940   0.13262   0.13450   0.14074
 Alpha virt. eigenvalues --    0.15249   0.16724   0.17064   0.17898   0.19865

 Mulliken charges:
               1
     1  O   -0.406254
     2  H    0.204792
     3  H    0.218172
     4  O   -0.527118
     5  C   -0.778463
     6  H    0.304546
     7  H    0.342667
     8  H    0.320818
     9  H    0.320839
 Sum of Mulliken charges =  -0.00000

 Dipole moment (field-independent basis, Debye):
    X=             -2.6627    Y=             -0.6378    Z=             -0.0133  Tot=              2.7381
 Quadrupole moment (field-independent basis, Debye-Ang):
   XX=            -11.6655   YY=            -23.2174   ZZ=            -18.4794
   XY=             -4.2962   XZ=              0.0288   YZ=             -0.0376

  Exact polarizability:  34.581  -1.496  29.830   0.057  -0.039  28.745
 Approx polarizability:  24.371  -0.757  23.231   0.038  -0.047  23.515

                      1                      2                      3
                      A                      A                      A
 Frequencies --     64.8947                70.5098                81.2082
 Red. masses --      2.6036                 1.0521                 1.0780
 Frc consts  --      0.0065                 0.0031                 0.0042
 IR Inten    --     34.0681                39.1399                17.5623

                      4                      5                      6
                      A                      A                      A
 Frequencies --    161.5516               182.4723               237.8767
 Red. masses --      3.3095                 1.0970                 1.4647
 Frc consts  --      0.0509                 0.0215                 0.0488
 IR Inten    --     12.1271                 0.3288               190.4659

                      7                      8                      9
                      A                      A                      A
 Frequencies --    671.9371              1079.0961              1120.9643
 Red. masses --      1.0427                 6.0112                 1.1689
 Frc consts  --      0.2774                 4.1241                 0.8654
 IR Inten    --    100.3946               100.9486                 5.4414

                     10                     11                     12
                      A                      A                      A
 Frequencies --   1184.7121              1427.1718              1489.8446
 Red. masses --      1.2683                 1.2181                 1.1434
 Frc consts  --      1.0488                 1.4617                 1.4953
 IR Inten    --      0.5792                28.2087                 4.0240

                     13                     14                     15
                      A                      A                      A
 Frequencies --   1523.6397              1535.9347              1629.9070
 Red. masses --      1.0481                 1.0401                 1.0830
 Frc consts  --      1.4335                 1.4457                 1.6951
 IR Inten    --      2.5264                 3.7036                72.5361

                     16                     17                     18
                      A                      A                      A
 Frequencies --   3042.5921              3108.8137              3168.3199
 Red. masses --      1.0335                 1.1051                 1.1005
 Frc consts  --      5.6370                 6.2929                 6.5086
 IR Inten    --     65.6614                48.2350                29.6803

                     19                     20                     21
                      A                      A                      A
 Frequencies --   3738.1200              3813.5025              3934.7311
 Red. masses --      1.0671                 1.0452                 1.0817
 Frc consts  --      8.7858                 8.9553                 9.8671
 IR Inten    --    417.3941                 6.5627                96.7031

 - Thermochemistry -
 -------------------
 Temperature   298.150 Kelvin.  Pressure   1.00000 Atm.
 Atom     1 has atomic number  8 and mass  15.99491

 Molecular mass:    50.03678 amu.
 Principal axes and moments of inertia in atomic units:
                           1         2         3
     Eigenvalues --    55.71502 472.07411 508.10712
           X            0.99948  -0.03216  -0.00005
           Y            0.03216   0.99948  -0.00064
           Z            0.00007   0.00064   1.00000
 This molecule is an asymmetric top.
 Rotational symmetry number  1.
 Rotational temperatures (Kelvin)      1.55459     0.18348     0.17046
 Rotational constants (GHZ):          32.39237     3.82300     3.55189
 Zero-point vibrational energy     198985.6 (Joules/Mol)
                                   47.55871 (Kcal/Mol)
 Warning -- explicit consideration of   6 degrees of freedom as
           vibrations may cause significant error
 Vibrational temperatures:     93.37   101.45   116.84   232.44   262.54
          (Kelvin)            342.25   966.77  1552.58  1612.82  1704.54
                             2053.38  2143.55  2192.18  2209.87  2345.07
                             4377.61  4472.89  4558.51  5378.32  5486.78
                             5661.20

 Zero-point correction=                           0.075790 (Hartree/Particle)
 Thermal correction to Energy=                    0.082922
 Thermal correction to Enthalpy=                  0.083866
 Thermal correction to Gibbs Free Energy=         0.045246
 Sum of electronic and zero-point Energies=           -191.790587
 Sum of electronic and thermal Energies=              -191.783455
 Sum of electronic and thermal Enthalpies=            -191.782511
 Sum of electronic and thermal Free Energies=         -191.821131

                     E (Thermal)             CV                S
                      KCal/Mol        Cal/Mol-Kelvin    Cal/Mol-Kelvin
 Total                   52.034             19.415             81.282
 Electronic               0.000              0.000              0.000
 Translational            0.889              2.981             37.654
 Rotational               0.889              2.981             24.106
 Vibrational             50.257             13.453             19.522
 Vibration     1          0.597              1.971              4.303
 Vibration     2          0.598              1.968              4.139
 Vibration     3          0.600              1.962              3.861
 Vibration     4          0.622              1.890              2.532
 Vibration     5          0.630              1.864              2.303
 Vibration     6          0.656              1.783              1.819

 ## DEPERTURBED TRANSITIONS MOMENTS ##

 Electric dipole : Fundamental Bands
 ------------------------------------------------------------------------

 ## AFTER VARIATIONAL CORRECTION

 Electric dipole : Fundamental Bands
 ------------------------------------------------------------------------

                           ! Non-Optimized Parameters !
 Normal termination of Gaussian 16 at Mon Dec 20 22:51:51 2021.
