 Gaussian 16, Revision A.03,
 Gaussian 16:  ES64L-G16RevA.03 25-Dec-2016

 ----------------------------------------------
 # MP2/aug-cc-pVTZ opt freq=(vibrot,anharmonic)
 ----------------------------------------------

 ----
 bleh
 ----
 Symbolic Z-matrix:
 Charge =  0 Multiplicity = 1

 SCF Done:  E(RHF) =  -171.314629902     A.U. after   11 cycles
 E2 =    -0.6843903837D+00 EUMP2 =    -0.17199902028566D+03
 SCF Done:  E(RHF) =  -171.316415597     A.U. after   10 cycles
 E2 =    -0.6835466861D+00 EUMP2 =    -0.17199996228282D+03
 SCF Done:  E(RHF) =  -171.316615810     A.U. after   11 cycles
 E2 =    -0.6825756750D+00 EUMP2 =    -0.17199919148505D+03
 SCF Done:  E(RHF) =  -171.318079236     A.U. after   10 cycles
 E2 =    -0.6823664342D+00 EUMP2 =    -0.17200044566972D+03
 SCF Done:  E(RHF) =  -171.318908158     A.U. after   10 cycles
 E2 =    -0.6813059459D+00 EUMP2 =    -0.17200021410362D+03
 SCF Done:  E(RHF) =  -171.318656237     A.U. after    9 cycles
 E2 =    -0.6819318883D+00 EUMP2 =    -0.17200058812481D+03
 SCF Done:  E(RHF) =  -171.318689416     A.U. after    8 cycles
 E2 =    -0.6819148233D+00 EUMP2 =    -0.17200060423898D+03
 SCF Done:  E(RHF) =  -171.318737020     A.U. after    9 cycles
 E2 =    -0.6818919845D+00 EUMP2 =    -0.17200062900483D+03
 SCF Done:  E(RHF) =  -171.318744646     A.U. after    8 cycles
 E2 =    -0.6818986129D+00 EUMP2 =    -0.17200064325940D+03
 SCF Done:  E(RHF) =  -171.318753339     A.U. after    9 cycles
 E2 =    -0.6819108594D+00 EUMP2 =    -0.17200066419836D+03
 E2 =    -0.6819542578D+00 EUMP2 =    -0.17200067955687D+03
 E2 =    -0.6819935585D+00 EUMP2 =    -0.17200068377383D+03
 E2 =    -0.6820207655D+00 EUMP2 =    -0.17200068478119D+03
 Optimization completed.
    -- Stationary point found.
 Normal termination of Gaussian 16 at Mon Jun  6 15:52:07 2022.

 ----------------------------------------------------------------------
 #N Geom=AllCheck Guess=TCheck SCRF=Check GenChk RMP2(FC)/Aug-CC-pVTZ F
 req
 ----------------------------------------------------------------------

 Structure from the checkpoint file:  "/tmp/Gau-26178.chk"
 ----
 bleh
 ----
 Charge =  0 Multiplicity = 1

                         Standard orientation:
 ---------------------------------------------------------------------
 Center     Atomic      Atomic             Coordinates (Angstroms)
 Number     Number       Type             X           Y           Z
 ---------------------------------------------------------------------
      1          8           0        0.776729   -0.721542   -0.000005
      2          1           0       -0.148244   -0.415496    0.000216
      3          6           0        1.605301    0.425351    0.000013
      4          1           0        2.637790    0.083724   -0.000398
      5          1           0        1.451343    1.045233    0.887885
      6          1           0        1.450788    1.045671   -0.887463
      7          7           0       -2.011997    0.126699    0.000062
      8          1           0       -2.467095   -0.286548   -0.804789
      9          1           0       -2.462948   -0.256033    0.822138
     10          1           0       -2.223298    1.116788   -0.018055
 ---------------------------------------------------------------------

 E2 =    -0.6820207637D+00 EUMP2 =    -0.17200068477939D+03
 E2 =    -0.6820207637D+00 EUMP2 =    -0.17200068477939D+03
 E2 =    -0.6820216685D+00 EUMP2 =    -0.17200068478241D+03
 E2 =    -0.6820216685D+00 EUMP2 =    -0.17200068478241D+03
 E2 =    -0.6820216530D+00 EUMP2 =    -0.17200068478154D+03
 E2 =    -0.6820216530D+00 EUMP2 =    -0.17200068478154D+03
 E2 =    -0.6820167754D+00 EUMP2 =    -0.17200068473650D+03
 SCF Done:  E(RHF) =  -171.318646991     A.U. after    8 cycles
 E2 =    -0.6819691465D+00 EUMP2 =    -0.17200061613744D+03
 E2 =    -0.6819691465D+00 EUMP2 =    -0.17200061613744D+03
 SCF Done:  E(RHF) =  -171.318545146     A.U. after    8 cycles
 E2 =    -0.6820733243D+00 EUMP2 =    -0.17200061847074D+03
 E2 =    -0.6820733243D+00 EUMP2 =    -0.17200061847074D+03
 SCF Done:  E(RHF) =  -171.318988352     A.U. after    8 cycles
 E2 =    -0.6816132161D+00 EUMP2 =    -0.17200060156788D+03
 E2 =    -0.6816132161D+00 EUMP2 =    -0.17200060156788D+03
 SCF Done:  E(RHF) =  -171.318170417     A.U. after    8 cycles
 E2 =    -0.6824321845D+00 EUMP2 =    -0.17200060260139D+03
 E2 =    -0.6824321845D+00 EUMP2 =    -0.17200060260139D+03
 SCF Done:  E(RHF) =  -171.318101503     A.U. after    7 cycles
 E2 =    -0.6824984981D+00 EUMP2 =    -0.17200060000143D+03
 E2 =    -0.6824984981D+00 EUMP2 =    -0.17200060000143D+03
 SCF Done:  E(RHF) =  -171.319050066     A.U. after    7 cycles
 E2 =    -0.6815451333D+00 EUMP2 =    -0.17200059519949D+03
 E2 =    -0.6815451333D+00 EUMP2 =    -0.17200059519949D+03
 SCF Done:  E(RHF) =  -171.318574680     A.U. after    7 cycles
 E2 =    -0.6820205305D+00 EUMP2 =    -0.17200059521086D+03
 E2 =    -0.6820205305D+00 EUMP2 =    -0.17200059521086D+03
 SCF Done:  E(RHF) =  -171.318573607     A.U. after    7 cycles
 E2 =    -0.6820214082D+00 EUMP2 =    -0.17200059501570D+03
 E2 =    -0.6820214082D+00 EUMP2 =    -0.17200059501570D+03
 SCF Done:  E(RHF) =  -171.318579412     A.U. after    7 cycles
 E2 =    -0.6820147289D+00 EUMP2 =    -0.17200059414105D+03
 E2 =    -0.6820147289D+00 EUMP2 =    -0.17200059414105D+03
 SCF Done:  E(RHF) =  -171.318568789     A.U. after    7 cycles
 E2 =    -0.6820271596D+00 EUMP2 =    -0.17200059594894D+03
 E2 =    -0.6820271596D+00 EUMP2 =    -0.17200059594894D+03

 Alpha  occ. eigenvalues --  -20.51859 -15.56705 -11.24827  -1.32133  -1.16990
 Alpha  occ. eigenvalues --   -0.89937  -0.66453  -0.65682  -0.65336  -0.59379
 Alpha  occ. eigenvalues --   -0.56533  -0.48959  -0.44616  -0.41849
 Alpha virt. eigenvalues --    0.02266   0.04055   0.04238   0.04589   0.06105
 Alpha virt. eigenvalues --    0.06322   0.07257   0.11575   0.13060   0.13497
 Alpha virt. eigenvalues --    0.14208   0.15062   0.15224   0.16164   0.16492

 Mulliken charges:
               1
     1  O   -0.527417
     2  H    0.280894
     3  C   -0.785863
     4  H    0.341323
     5  H    0.314027
     6  H    0.313792
     7  N   -0.391348
     8  H    0.145766
     9  H    0.145858
    10  H    0.162969
 Sum of Mulliken charges =   0.00000

 Dipole moment (field-independent basis, Debye):
    X=             -2.9915    Y=              1.9211    Z=             -0.0010  Tot=              3.5552
 Quadrupole moment (field-independent basis, Debye-Ang):
   XX=            -14.2307   YY=            -21.9831   ZZ=            -20.4307
   XY=              1.4257   XZ=              0.0015   YZ=              0.0000

  Exact polarizability:  41.243   0.780  33.887   0.005  -0.001  31.774
 Approx polarizability:  28.057   0.224  27.554   0.002  -0.001  26.343

                      1                      2                      3
                      A                      A                      A
 Frequencies --      8.1510                73.8333                92.4972
 Red. masses --      1.1205                 2.1518                 1.0468
 Frc consts  --      0.0000                 0.0069                 0.0053
 IR Inten    --      1.4130                 6.9567                 2.9794

                      4                      5                      6
                      A                      A                      A
 Frequencies --    188.7784               198.4751               275.9187
 Red. masses --      3.9805                 1.1175                 1.3130
 Frc consts  --      0.0836                 0.0259                 0.0589
 IR Inten    --      3.9101                10.6052                25.9961

                      7                      8                      9
                      A                      A                      A
 Frequencies --    768.6941              1086.7995              1095.7966
 Red. masses --      1.0479                 4.8274                 1.2917
 Frc consts  --      0.3648                 3.3594                 0.9138
 IR Inten    --     96.3312               129.2097               117.9552

                     10                     11                     12
                      A                      A                      A
 Frequencies --   1137.5866              1184.0321              1473.2391
 Red. masses --      1.1644                 1.2717                 1.1719
 Frc consts  --      0.8878                 1.0504                 1.4986
 IR Inten    --      6.0391                 0.6760                26.2566

                     13                     14                     15
                      A                      A                      A
 Frequencies --   1487.4152              1522.9660              1537.0020
 Red. masses --      1.1518                 1.0484                 1.0386
 Frc consts  --      1.5013                 1.4327                 1.4455
 IR Inten    --      3.9073                 2.3500                 3.5596

                     16                     17                     18
                      A                      A                      A
 Frequencies --   1667.3350              1668.6070              3029.7223
 Red. masses --      1.0640                 1.0644                 1.0343
 Frc consts  --      1.7428                 1.7460                 5.5937
 IR Inten    --     16.1365                16.9591                76.3542

                     19                     20                     21
                      A                      A                      A
 Frequencies --   3091.4581              3159.6976              3498.1437
 Red. masses --      1.1045                 1.0991                 1.0269
 Frc consts  --      6.2195                 6.4651                 7.4039
 IR Inten    --     56.6231                36.3149                 2.9611

                     22                     23                     24
                      A                      A                      A
 Frequencies --   3591.1914              3642.5884              3643.8662
 Red. masses --      1.0687                 1.0894                 1.0894
 Frc consts  --      8.1202                 8.5165                 8.5221
 IR Inten    --    693.6656                17.7101                16.1842

 - Thermochemistry -
 -------------------
 Temperature   298.150 Kelvin.  Pressure   1.00000 Atm.
 Atom     1 has atomic number  8 and mass  15.99491

 Molecular mass:    49.05276 amu.
 Principal axes and moments of inertia in atomic units:
                           1         2         3
     Eigenvalues --    61.73751 459.48063 500.34495
           X            0.99983   0.01859   0.00001
           Y           -0.01859   0.99983  -0.00001
           Z           -0.00001   0.00001   1.00000
 This molecule is an asymmetric top.
 Rotational symmetry number  1.
 Rotational temperatures (Kelvin)      1.40294     0.18850     0.17311
 Rotational constants (GHZ):          29.23249     3.92779     3.60699
 Zero-point vibrational energy     234012.3 (Joules/Mol)
                                   55.93027 (Kcal/Mol)
 Warning -- explicit consideration of   6 degrees of freedom as
           vibrations may cause significant error
 Vibrational temperatures:     11.73   106.23   133.08   271.61   285.56
          (Kelvin)            396.99  1105.98  1563.66  1576.61  1636.73
                             1703.56  2119.66  2140.06  2191.21  2211.40
                             2398.92  2400.75  4359.09  4447.92  4546.10
                             5033.05  5166.92  5240.87  5242.71

 Zero-point correction=                           0.089131 (Hartree/Particle)
 Thermal correction to Energy=                    0.096220
 Thermal correction to Enthalpy=                  0.097164
 Thermal correction to Gibbs Free Energy=         0.057111
 Sum of electronic and zero-point Energies=           -171.911554
 Sum of electronic and thermal Energies=              -171.904465
 Sum of electronic and thermal Enthalpies=            -171.903521
 Sum of electronic and thermal Free Energies=         -171.943573

                     E (Thermal)             CV                S
                      KCal/Mol        Cal/Mol-Kelvin    Cal/Mol-Kelvin
 Total                   60.379             19.406             84.298
 Electronic               0.000              0.000              0.000
 Translational            0.889              2.981             37.595
 Rotational               0.889              2.981             24.166
 Vibrational             58.601             13.445             22.537
 Vibration     1          0.593              1.987              8.417
 Vibration     2          0.599              1.966              4.048
 Vibration     3          0.602              1.955              3.607
 Vibration     4          0.633              1.855              2.240
 Vibration     5          0.637              1.842              2.147
 Vibration     6          0.678              1.718              1.559

 ## DEPERTURBED TRANSITIONS MOMENTS ##

 Electric dipole : Fundamental Bands
 ------------------------------------------------------------------------

 ## AFTER VARIATIONAL CORRECTION

 Electric dipole : Fundamental Bands
 ------------------------------------------------------------------------

                           ! Non-Optimized Parameters !
 Normal termination of Gaussian 16 at Tue Jun  7 07:51:27 2022.
