 Gaussian 16, Revision A.03,
 Gaussian 16:  ES64L-G16RevA.03 25-Dec-2016

 ----------------------------------------------
 # MP2/aug-cc-pVDZ opt freq=(vibrot,anharmonic)
 ----------------------------------------------

 ----
 bleh
 ----
 Symbolic Z-matrix:
 Charge =  0 Multiplicity = 1

 SCF Done:  E(RHF) =  -171.270089972     A.U. after   11 cycles
 E2 =    -0.5665547034D+00 EUMP2 =    -0.17183664467494D+03
 SCF Done:  E(RHF) =  -171.270552359     A.U. after   11 cycles
 E2 =    -0.5672771858D+00 EUMP2 =    -0.17183782954481D+03
 SCF Done:  E(RHF) =  -171.269639835     A.U. after   12 cycles
 E2 =    -0.5673578036D+00 EUMP2 =    -0.17183699763852D+03
 SCF Done:  E(RHF) =  -171.271733808     A.U. after   10 cycles
 E2 =    -0.5664811293D+00 EUMP2 =    -0.17183821493707D+03
 SCF Done:  E(RHF) =  -171.272528762     A.U. after   11 cycles
 E2 =    -0.5654795629D+00 EUMP2 =    -0.17183800832461D+03
 SCF Done:  E(RHF) =  -171.272575209     A.U. after    9 cycles
 E2 =    -0.5657820113D+00 EUMP2 =    -0.17183835722035D+03
 SCF Done:  E(RHF) =  -171.272642609     A.U. after    8 cycles
 E2 =    -0.5657292835D+00 EUMP2 =    -0.17183837189246D+03
 SCF Done:  E(RHF) =  -171.272695072     A.U. after    9 cycles
 E2 =    -0.5656973750D+00 EUMP2 =    -0.17183839244729D+03
 SCF Done:  E(RHF) =  -171.272664478     A.U. after    9 cycles
 E2 =    -0.5657444799D+00 EUMP2 =    -0.17183840895794D+03
 SCF Done:  E(RHF) =  -171.272611438     A.U. after    9 cycles
 E2 =    -0.5658172735D+00 EUMP2 =    -0.17183842871109D+03
 E2 =    -0.5658709931D+00 EUMP2 =    -0.17183844020629D+03
 E2 =    -0.5658884247D+00 EUMP2 =    -0.17183844586032D+03
 E2 =    -0.5658897156D+00 EUMP2 =    -0.17183844612595D+03
 Optimization completed.
    -- Stationary point found.
 Normal termination of Gaussian 16 at Mon Jun  6 15:33:45 2022.

 ----------------------------------------------------------------------
 #N Geom=AllCheck Guess=TCheck SCRF=Check GenChk RMP2(FC)/Aug-CC-pVDZ F
 req
 ----------------------------------------------------------------------

 Structure from the checkpoint file:  "/tmp/Gau-26117.chk"
 ----
 bleh
 ----
 Charge =  0 Multiplicity = 1

                         Standard orientation:
 ---------------------------------------------------------------------
 Center     Atomic      Atomic             Coordinates (Angstroms)
 Number     Number       Type             X           Y           Z
 ---------------------------------------------------------------------
      1          8           0        0.778712   -0.726925   -0.000006
      2          1           0       -0.148968   -0.415832    0.000400
      3          6           0        1.614358    0.428441    0.000015
      4          1           0        2.656308    0.079261   -0.000541
      5          1           0        1.459363    1.054366    0.897879
      6          1           0        1.458607    1.054946   -0.897319
      7          7           0       -2.019165    0.127512    0.000089
      8          1           0       -2.482706   -0.279584   -0.812405
      9          1           0       -2.481813   -0.263670    0.820856
     10          1           0       -2.242480    1.122682   -0.009542
 ---------------------------------------------------------------------

 E2 =    -0.5658897139D+00 EUMP2 =    -0.17183844612429D+03
 E2 =    -0.5658897139D+00 EUMP2 =    -0.17183844612429D+03
 E2 =    -0.5658908018D+00 EUMP2 =    -0.17183844611065D+03
 E2 =    -0.5658908018D+00 EUMP2 =    -0.17183844611065D+03
 E2 =    -0.5658908157D+00 EUMP2 =    -0.17183844612937D+03
 E2 =    -0.5658908157D+00 EUMP2 =    -0.17183844612937D+03
 E2 =    -0.5658862833D+00 EUMP2 =    -0.17183844608457D+03
 SCF Done:  E(RHF) =  -171.272568526     A.U. after    8 cycles
 E2 =    -0.5658087104D+00 EUMP2 =    -0.17183837723671D+03
 E2 =    -0.5658087104D+00 EUMP2 =    -0.17183837723671D+03
 SCF Done:  E(RHF) =  -171.272410047     A.U. after    8 cycles
 E2 =    -0.5659695663D+00 EUMP2 =    -0.17183837961303D+03
 E2 =    -0.5659695663D+00 EUMP2 =    -0.17183837961303D+03
 SCF Done:  E(RHF) =  -171.272955962     A.U. after    8 cycles
 E2 =    -0.5654075455D+00 EUMP2 =    -0.17183836350737D+03
 E2 =    -0.5654075455D+00 EUMP2 =    -0.17183836350737D+03
 SCF Done:  E(RHF) =  -171.271991015     A.U. after    8 cycles
 E2 =    -0.5663742717D+00 EUMP2 =    -0.17183836528675D+03
 E2 =    -0.5663742717D+00 EUMP2 =    -0.17183836528675D+03
 SCF Done:  E(RHF) =  -171.271967221     A.U. after    8 cycles
 E2 =    -0.5663946485D+00 EUMP2 =    -0.17183836186928D+03
 E2 =    -0.5663946485D+00 EUMP2 =    -0.17183836186928D+03
 SCF Done:  E(RHF) =  -171.272970329     A.U. after    8 cycles
 E2 =    -0.5653869459D+00 EUMP2 =    -0.17183835727514D+03
 E2 =    -0.5653869459D+00 EUMP2 =    -0.17183835727514D+03
 SCF Done:  E(RHF) =  -171.272468537     A.U. after    8 cycles
 E2 =    -0.5658886040D+00 EUMP2 =    -0.17183835714084D+03
 E2 =    -0.5658886040D+00 EUMP2 =    -0.17183835714084D+03
 SCF Done:  E(RHF) =  -171.272467369     A.U. after    8 cycles
 E2 =    -0.5658896740D+00 EUMP2 =    -0.17183835704315D+03
 E2 =    -0.5658896740D+00 EUMP2 =    -0.17183835704315D+03
 SCF Done:  E(RHF) =  -171.272476336     A.U. after    8 cycles
 E2 =    -0.5658801176D+00 EUMP2 =    -0.17183835645390D+03
 E2 =    -0.5658801176D+00 EUMP2 =    -0.17183835645390D+03
 SCF Done:  E(RHF) =  -171.272459443     A.U. after    8 cycles
 E2 =    -0.5658981205D+00 EUMP2 =    -0.17183835756315D+03
 E2 =    -0.5658981205D+00 EUMP2 =    -0.17183835756315D+03

 Alpha  occ. eigenvalues --  -20.52950 -15.57952 -11.26135  -1.32065  -1.16848
 Alpha  occ. eigenvalues --   -0.89719  -0.66155  -0.65250  -0.64924  -0.58955
 Alpha  occ. eigenvalues --   -0.56196  -0.48910  -0.44652  -0.41770
 Alpha virt. eigenvalues --    0.02780   0.04829   0.05256   0.05571   0.07393
 Alpha virt. eigenvalues --    0.07583   0.08892   0.13600   0.16020   0.16159
 Alpha virt. eigenvalues --    0.17463   0.18571   0.19091   0.19890   0.21042

 Mulliken charges:
               1
     1  O   -0.500592
     2  H    0.212536
     3  C    0.836907
     4  H   -0.228865
     5  H   -0.140059
     6  H   -0.140224
     7  N   -0.134000
     8  H    0.021651
     9  H    0.021316
    10  H    0.051331
 Sum of Mulliken charges =  -0.00000

 Dipole moment (field-independent basis, Debye):
    X=             -3.0154    Y=              1.9338    Z=             -0.0012  Tot=              3.5822
 Quadrupole moment (field-independent basis, Debye-Ang):
   XX=            -14.3462   YY=            -22.3070   ZZ=            -20.7533
   XY=              1.4290   XZ=              0.0011   YZ=              0.0002

  Exact polarizability:  41.662   0.752  34.196   0.004  -0.000  32.021
 Approx polarizability:  28.348   0.234  27.904   0.001  -0.000  26.620

                      1                      2                      3
                      A                      A                      A
 Frequencies --     21.4799                70.9588                95.3404
 Red. masses --      1.1179                 2.1502                 1.0433
 Frc consts  --      0.0003                 0.0064                 0.0056
 IR Inten    --      1.5179                 7.0749                 3.5346

                      4                      5                      6
                      A                      A                      A
 Frequencies --    187.8576               201.2963               276.9666
 Red. masses --      4.0407                 1.1268                 1.3126
 Frc consts  --      0.0840                 0.0269                 0.0593
 IR Inten    --      3.8867                10.2739                26.7467

                      7                      8                      9
                      A                      A                      A
 Frequencies --    776.9840              1070.0221              1109.0307
 Red. masses --      1.0484                 7.3498                 1.1884
 Frc consts  --      0.3729                 4.9581                 0.8612
 IR Inten    --     98.8097                94.1896               140.4791

                     10                     11                     12
                      A                      A                      A
 Frequencies --   1123.7290              1168.6473              1459.5700
 Red. masses --      1.1652                 1.2724                 1.1595
 Frc consts  --      0.8669                 1.0239                 1.4554
 IR Inten    --      6.2093                 0.6682                 2.1434

                     13                     14                     15
                      A                      A                      A
 Frequencies --   1468.2201              1491.6238              1511.2307
 Red. masses --      1.1518                 1.0480                 1.0416
 Frc consts  --      1.4628                 1.3738                 1.4016
 IR Inten    --     29.1177                 2.0157                 4.0498

                     16                     17                     18
                      A                      A                      A
 Frequencies --   1646.2562              1647.6889              3027.4352
 Red. masses --      1.0625                 1.0629                 1.0346
 Frc consts  --      1.6966                 1.7002                 5.5870
 IR Inten    --     14.9704                15.8354                80.4504

                     19                     20                     21
                      A                      A                      A
 Frequencies --   3094.9496              3164.9222              3477.5909
 Red. masses --      1.1046                 1.0993                 1.0279
 Frc consts  --      6.2337                 6.4877                 7.3238
 IR Inten    --     62.9383                40.7626                 0.6663

                     22                     23                     24
                      A                      A                      A
 Frequencies --   3578.2340              3629.4882              3631.2218
 Red. masses --      1.0687                 1.0889                 1.0888
 Frc consts  --      8.0621                 8.4512                 8.4589
 IR Inten    --    678.0483                12.7576                11.6099

 - Thermochemistry -
 -------------------
 Temperature   298.150 Kelvin.  Pressure   1.00000 Atm.
 Atom     1 has atomic number  8 and mass  15.99491

 Molecular mass:    49.05276 amu.
 Principal axes and moments of inertia in atomic units:
                           1         2         3
     Eigenvalues --    62.64868 463.95124 505.39983
           X            0.99983   0.01850   0.00001
           Y           -0.01850   0.99983  -0.00001
           Z           -0.00001   0.00001   1.00000
 This molecule is an asymmetric top.
 Rotational symmetry number  1.
 Rotational temperatures (Kelvin)      1.38253     0.18669     0.17138
 Rotational constants (GHZ):          28.80733     3.88994     3.57092
 Zero-point vibrational energy     232857.6 (Joules/Mol)
                                   55.65429 (Kcal/Mol)
 Warning -- explicit consideration of   6 degrees of freedom as
           vibrations may cause significant error
 Vibrational temperatures:     30.90   102.09   137.17   270.29   289.62
          (Kelvin)            398.49  1117.91  1539.52  1595.65  1616.80
                             1681.42  2100.00  2112.44  2146.11  2174.32
                             2368.60  2370.66  4355.80  4452.94  4553.62
                             5003.48  5148.28  5222.02  5224.52

 Zero-point correction=                           0.088691 (Hartree/Particle)
 Thermal correction to Energy=                    0.095749
 Thermal correction to Enthalpy=                  0.096693
 Thermal correction to Gibbs Free Energy=         0.057538
 Sum of electronic and zero-point Energies=           -171.749755
 Sum of electronic and thermal Energies=              -171.742697
 Sum of electronic and thermal Enthalpies=            -171.741753
 Sum of electronic and thermal Free Energies=         -171.780908

                     E (Thermal)             CV                S
                      KCal/Mol        Cal/Mol-Kelvin    Cal/Mol-Kelvin
 Total                   60.083             19.441             82.408
 Electronic               0.000              0.000              0.000
 Translational            0.889              2.981             37.595
 Rotational               0.889              2.981             24.200
 Vibrational             58.306             13.480             20.613
 Vibration     1          0.593              1.985              6.492
 Vibration     2          0.598              1.968              4.127
 Vibration     3          0.603              1.953              3.547
 Vibration     4          0.633              1.857              2.249
 Vibration     5          0.638              1.838              2.121
 Vibration     6          0.678              1.716              1.552

 ## DEPERTURBED TRANSITIONS MOMENTS ##

 Electric dipole : Fundamental Bands
 ------------------------------------------------------------------------

 ## AFTER VARIATIONAL CORRECTION

 Electric dipole : Fundamental Bands
 ------------------------------------------------------------------------

                           ! Non-Optimized Parameters !
 Normal termination of Gaussian 16 at Mon Jun  6 16:16:33 2022.
