 Gaussian 16, Revision A.03,
 Gaussian 16:  ES64L-G16RevA.03 25-Dec-2016

 ----------------------------------------------
 # MP2/aug-cc-pVTZ opt freq=(vibrot,anharmonic)
 ----------------------------------------------

 ----
 bleh
 ----
 Symbolic Z-matrix:
 Charge =  0 Multiplicity = 1

 SCF Done:  E(RHF) =  -151.476107611     A.U. after   11 cycles
 E2 =    -0.6565543823D+00 EUMP2 =    -0.15213266199285D+03
 SCF Done:  E(RHF) =  -151.477775953     A.U. after    8 cycles
 E2 =    -0.6553825935D+00 EUMP2 =    -0.15213315854673D+03
 SCF Done:  E(RHF) =  -151.477868919     A.U. after    8 cycles
 E2 =    -0.6553058776D+00 EUMP2 =    -0.15213317479676D+03
 SCF Done:  E(RHF) =  -151.477941330     A.U. after    7 cycles
 E2 =    -0.6552387312D+00 EUMP2 =    -0.15213318006105D+03
 SCF Done:  E(RHF) =  -151.477955140     A.U. after    6 cycles
 E2 =    -0.6552255518D+00 EUMP2 =    -0.15213318069171D+03
 SCF Done:  E(RHF) =  -151.477959522     A.U. after    6 cycles
 E2 =    -0.6552214923D+00 EUMP2 =    -0.15213318101433D+03
 SCF Done:  E(RHF) =  -151.477962204     A.U. after    6 cycles
 E2 =    -0.6552190292D+00 EUMP2 =    -0.15213318123287D+03
 SCF Done:  E(RHF) =  -151.477963611     A.U. after    6 cycles
 E2 =    -0.6552178903D+00 EUMP2 =    -0.15213318150092D+03
 SCF Done:  E(RHF) =  -151.477965046     A.U. after    7 cycles
 E2 =    -0.6552167357D+00 EUMP2 =    -0.15213318178169D+03
 SCF Done:  E(RHF) =  -151.477967586     A.U. after    7 cycles
 E2 =    -0.6552144656D+00 EUMP2 =    -0.15213318205132D+03
 E2 =    -0.6552117404D+00 EUMP2 =    -0.15213318225645D+03
 E2 =    -0.6552108871D+00 EUMP2 =    -0.15213318240898D+03
 E2 =    -0.6552109738D+00 EUMP2 =    -0.15213318250910D+03
 E2 =    -0.6552136056D+00 EUMP2 =    -0.15213318263136D+03
 E2 =    -0.6552191229D+00 EUMP2 =    -0.15213318286290D+03
 E2 =    -0.6552243641D+00 EUMP2 =    -0.15213318308746D+03
 E2 =    -0.6552302282D+00 EUMP2 =    -0.15213318335354D+03
 E2 =    -0.6552335243D+00 EUMP2 =    -0.15213318359215D+03
 E2 =    -0.6552327548D+00 EUMP2 =    -0.15213318382479D+03
 E2 =    -0.6552243238D+00 EUMP2 =    -0.15213318406232D+03
 Optimization completed.
    -- Stationary point found.
 Normal termination of Gaussian 16 at Mon Dec 20 14:27:32 2021.

 ----------------------------------------------------------------------
 #N Geom=AllCheck Guess=TCheck SCRF=Check GenChk RMP2(FC)/Aug-CC-pVTZ F
 req
 ----------------------------------------------------------------------

 Structure from the checkpoint file:  "/gscratch/scrubbed/gds001/Gau-8703.chk"
 ----
 bleh
 ----
 Charge =  0 Multiplicity = 1

                         Standard orientation:
 ---------------------------------------------------------------------
 Center     Atomic      Atomic             Coordinates (Angstroms)
 Number     Number       Type             X           Y           Z
 ---------------------------------------------------------------------
      1          7           0        0.884642    0.701726   -0.120460
      2          6           0        1.705941   -0.499656    0.023577
      3          1           0        1.232791    1.434050    0.485090
      4          1           0       -0.068374    0.504733    0.170574
      5          7           0       -2.237684   -0.119055    0.044385
      6          1           0       -2.510293   -1.092721    0.097959
      7          1           0       -2.221419    0.127164   -0.938137
      8          1           0       -2.985283    0.416510    0.467998
      9          1           0        2.722102   -0.288067   -0.305762
     10          1           0        1.310310   -1.278467   -0.626485
     11          1           0        1.755813   -0.903967    1.039820
 ---------------------------------------------------------------------

 SCF Done:  E(RHF) =  -151.478387988     A.U. after    8 cycles
 E2 =    -0.6547129624D+00 EUMP2 =    -0.15213310094999D+03
 E2 =    -0.6547129624D+00 EUMP2 =    -0.15213310094999D+03
 SCF Done:  E(RHF) =  -151.477388651     A.U. after    8 cycles
 E2 =    -0.6557140724D+00 EUMP2 =    -0.15213310272316D+03
 E2 =    -0.6557140724D+00 EUMP2 =    -0.15213310272316D+03
 SCF Done:  E(RHF) =  -151.478035642     A.U. after    8 cycles
 E2 =    -0.6550650371D+00 EUMP2 =    -0.15213310067900D+03
 E2 =    -0.6550650371D+00 EUMP2 =    -0.15213310067900D+03
 SCF Done:  E(RHF) =  -151.477740587     A.U. after    8 cycles
 E2 =    -0.6553617126D+00 EUMP2 =    -0.15213310229916D+03
 E2 =    -0.6553617126D+00 EUMP2 =    -0.15213310229916D+03
 SCF Done:  E(RHF) =  -151.477820601     A.U. after    8 cycles
 E2 =    -0.6552766899D+00 EUMP2 =    -0.15213309729087D+03
 E2 =    -0.6552766899D+00 EUMP2 =    -0.15213309729087D+03
 SCF Done:  E(RHF) =  -151.477948223     A.U. after    8 cycles
 E2 =    -0.6551472287D+00 EUMP2 =    -0.15213309545184D+03
 E2 =    -0.6551472287D+00 EUMP2 =    -0.15213309545184D+03
 SCF Done:  E(RHF) =  -151.477872567     A.U. after    7 cycles
 E2 =    -0.6552211699D+00 EUMP2 =    -0.15213309373699D+03
 E2 =    -0.6552211699D+00 EUMP2 =    -0.15213309373699D+03
 SCF Done:  E(RHF) =  -151.477893281     A.U. after    7 cycles
 E2 =    -0.6552021644D+00 EUMP2 =    -0.15213309544507D+03
 E2 =    -0.6552021644D+00 EUMP2 =    -0.15213309544507D+03
 SCF Done:  E(RHF) =  -151.477882144     A.U. after    7 cycles
 E2 =    -0.6552123568D+00 EUMP2 =    -0.15213309450082D+03
 E2 =    -0.6552123568D+00 EUMP2 =    -0.15213309450082D+03
 SCF Done:  E(RHF) =  -151.477883449     A.U. after    7 cycles
 E2 =    -0.6552108981D+00 EUMP2 =    -0.15213309434748D+03
 E2 =    -0.6552108981D+00 EUMP2 =    -0.15213309434748D+03

 Alpha  occ. eigenvalues --  -15.55087 -15.51563 -11.22652  -1.15439  -1.14754
 Alpha  occ. eigenvalues --   -0.87953  -0.64854  -0.63844  -0.63452  -0.58658
 Alpha  occ. eigenvalues --   -0.53972  -0.50320  -0.43942  -0.37127
 Alpha virt. eigenvalues --    0.02607   0.04079   0.04245   0.04682   0.05837
 Alpha virt. eigenvalues --    0.06093   0.06478   0.08645   0.11013   0.13427
 Alpha virt. eigenvalues --    0.13594   0.14371   0.14879   0.15326   0.15914

 Mulliken charges:
               1
     1  N   -0.541270
     2  C   -0.827035
     3  H    0.117778
     4  H    0.269181
     5  N   -0.533092
     6  H    0.180850
     7  H    0.178787
     8  H    0.173989
     9  H    0.331209
    10  H    0.336168
    11  H    0.313434
 Sum of Mulliken charges =  -0.00000

 Dipole moment (field-independent basis, Debye):
    X=             -1.8991    Y=             -0.6900    Z=              0.6652  Tot=              2.1273
 Quadrupole moment (field-independent basis, Debye-Ang):
   XX=            -15.6427   YY=            -20.8923   ZZ=            -22.6614
   XY=              0.3175   XZ=              1.5336   YZ=              1.9662

  Exact polarizability:  44.082  -1.050  39.349   1.241  -0.488  37.177
 Approx polarizability:  31.208  -0.176  31.671   0.185   0.124  30.676

                      1                      2                      3
                      A                      A                      A
 Frequencies --     33.1614                37.5583                48.6292
 Red. masses --      1.2730                 1.6277                 1.0910
 Frc consts  --      0.0008                 0.0014                 0.0015
 IR Inten    --      2.0619                 7.3544                43.5193

                      4                      5                      6
                      A                      A                      A
 Frequencies --    136.9916               161.6110               187.7117
 Red. masses --      2.7589                 1.1908                 1.2205
 Frc consts  --      0.0305                 0.0183                 0.0253
 IR Inten    --      9.1910                30.4787                27.8107

                      7                      8                      9
                      A                      A                      A
 Frequencies --    418.2132               893.3220              1002.6029
 Red. masses --      1.0687                 1.2035                 1.0814
 Frc consts  --      0.1101                 0.5659                 0.6404
 IR Inten    --     41.5943               122.0987                 7.7659

                     10                     11                     12
                      A                      A                      A
 Frequencies --   1065.4136              1080.5865              1184.9700
 Red. masses --      1.1820                 3.2352                 1.3967
 Frc consts  --      0.7905                 2.2257                 1.1555
 IR Inten    --    146.7357                10.4657                 6.8043

                     13                     14                     15
                      A                      A                      A
 Frequencies --   1370.9147              1462.8758              1519.5602
 Red. masses --      1.3162                 1.1729                 1.0483
 Frc consts  --      1.4574                 1.4789                 1.4262
 IR Inten    --      0.8831                 2.3328                 6.3596

                     16                     17                     18
                      A                      A                      A
 Frequencies --   1540.4394              1665.7831              1669.4735
 Red. masses --      1.0341                 1.0674                 1.0658
 Frc consts  --      1.4458                 1.7450                 1.7502
 IR Inten    --      3.4058                21.1557                13.4385

                     19                     20                     21
                      A                      A                      A
 Frequencies --   1679.6078              3030.9660              3117.5313
 Red. masses --      1.0760                 1.0463                 1.0882
 Frc consts  --      1.7885                 5.6635                 6.2313
 IR Inten    --      7.5691                77.3178                32.2430

                     22                     23                     24
                      A                      A                      A
 Frequencies --   3157.5118              3491.0203              3498.4769
 Red. masses --      1.1029                 1.0477                 1.0325
 Frc consts  --      6.4783                 7.5229                 7.4458
 IR Inten    --     28.8356                65.0562                32.0812

                     25                     26                     27
                      A                      A                      A
 Frequencies --   3604.8553              3641.2832              3644.7497
 Red. masses --      1.0898                 1.0894                 1.0892
 Frc consts  --      8.3437                 8.5103                 8.5250
 IR Inten    --     39.3048                12.3787                11.1085

 - Thermochemistry -
 -------------------
 Temperature   298.150 Kelvin.  Pressure   1.00000 Atm.
 Atom     1 has atomic number  7 and mass  14.00307

 Molecular mass:    48.06875 amu.
 Principal axes and moments of inertia in atomic units:
                           1         2         3
     Eigenvalues --    69.71948 547.46319 594.66109
           X            0.99993  -0.00847   0.00768
           Y            0.00806   0.99865   0.05127
           Z           -0.00810  -0.05121   0.99866
 This molecule is an asymmetric top.
 Rotational symmetry number  1.
 Rotational temperatures (Kelvin)      1.24232     0.15821     0.14565
 Rotational constants (GHZ):          25.88575     3.29655     3.03491
 Zero-point vibrational energy     265246.9 (Joules/Mol)
                                   63.39553 (Kcal/Mol)
 Warning -- explicit consideration of   7 degrees of freedom as
           vibrations may cause significant error
 Vibrational temperatures:     47.71    54.04    69.97   197.10   232.52
          (Kelvin)            270.08   601.72  1285.29  1442.52  1532.89
                             1554.72  1704.91  1972.44  2104.75  2186.31
                             2216.35  2396.69  2402.00  2416.58  4360.88
                             4485.43  4542.96  5022.80  5033.53  5186.58
                             5238.99  5243.98

 Zero-point correction=                           0.101027 (Hartree/Particle)
 Thermal correction to Energy=                    0.108786
 Thermal correction to Enthalpy=                  0.109731
 Thermal correction to Gibbs Free Energy=         0.068361
 Sum of electronic and zero-point Energies=           -152.032157
 Sum of electronic and thermal Energies=              -152.024398
 Sum of electronic and thermal Enthalpies=            -152.023454
 Sum of electronic and thermal Free Energies=         -152.064823

                     E (Thermal)             CV                S
                      KCal/Mol        Cal/Mol-Kelvin    Cal/Mol-Kelvin
 Total                   68.264             21.163             87.069
 Electronic               0.000              0.000              0.000
 Translational            0.889              2.981             37.534
 Rotational               0.889              2.981             24.632
 Vibrational             66.487             15.202             24.903
 Vibration     1          0.594              1.983              5.631
 Vibration     2          0.594              1.982              5.384
 Vibration     3          0.595              1.978              4.872
 Vibration     4          0.614              1.916              2.845
 Vibration     5          0.622              1.889              2.531
 Vibration     6          0.632              1.857              2.250
 Vibration     7          0.781              1.431              0.898

 ## DEPERTURBED TRANSITIONS MOMENTS ##

 Electric dipole : Fundamental Bands
 ------------------------------------------------------------------------

 ## AFTER VARIATIONAL CORRECTION

 Electric dipole : Fundamental Bands
 ------------------------------------------------------------------------

                           ! Non-Optimized Parameters !
 Normal termination of Gaussian 16 at Tue Dec 21 16:06:29 2021.
