 Gaussian 16, Revision A.03,
 Gaussian 16:  ES64L-G16RevA.03 25-Dec-2016

 ----------------------------------------------
 # MP2/aug-cc-pVDZ opt freq=(vibrot,anharmonic)
 ----------------------------------------------

 ----
 bleh
 ----
 Symbolic Z-matrix:
 Charge =  0 Multiplicity = 1

 SCF Done:  E(RHF) =  -151.434070346     A.U. after   12 cycles
 E2 =    -0.5476782876D+00 EUMP2 =    -0.15198174863339D+03
 SCF Done:  E(RHF) =  -151.435615714     A.U. after   11 cycles
 E2 =    -0.5482099944D+00 EUMP2 =    -0.15198382570842D+03
 SCF Done:  E(RHF) =  -151.436067753     A.U. after   10 cycles
 E2 =    -0.5482125733D+00 EUMP2 =    -0.15198428032612D+03
 SCF Done:  E(RHF) =  -151.436743435     A.U. after   10 cycles
 E2 =    -0.5476998451D+00 EUMP2 =    -0.15198444328040D+03
 SCF Done:  E(RHF) =  -151.437209873     A.U. after   10 cycles
 E2 =    -0.5473474907D+00 EUMP2 =    -0.15198455736396D+03
 SCF Done:  E(RHF) =  -151.437518948     A.U. after    9 cycles
 E2 =    -0.5470801189D+00 EUMP2 =    -0.15198459906704D+03
 SCF Done:  E(RHF) =  -151.437577584     A.U. after    9 cycles
 E2 =    -0.5470326010D+00 EUMP2 =    -0.15198461018532D+03
 SCF Done:  E(RHF) =  -151.437612133     A.U. after    9 cycles
 E2 =    -0.5470036106D+00 EUMP2 =    -0.15198461574318D+03
 SCF Done:  E(RHF) =  -151.437614518     A.U. after    8 cycles
 E2 =    -0.5470023462D+00 EUMP2 =    -0.15198461686375D+03
 SCF Done:  E(RHF) =  -151.437586889     A.U. after    8 cycles
 E2 =    -0.5470330475D+00 EUMP2 =    -0.15198461993645D+03
 E2 =    -0.5470859176D+00 EUMP2 =    -0.15198462423382D+03
 E2 =    -0.5471336392D+00 EUMP2 =    -0.15198462876820D+03
 E2 =    -0.5471586117D+00 EUMP2 =    -0.15198463253539D+03
 E2 =    -0.5471523434D+00 EUMP2 =    -0.15198463490070D+03
 E2 =    -0.5471032543D+00 EUMP2 =    -0.15198463792437D+03
 E2 =    -0.5470611938D+00 EUMP2 =    -0.15198463978487D+03
 E2 =    -0.5470287493D+00 EUMP2 =    -0.15198464226552D+03
 E2 =    -0.5469639061D+00 EUMP2 =    -0.15198464711724D+03
 E2 =    -0.5469468759D+00 EUMP2 =    -0.15198465291024D+03
 E2 =    -0.5469247538D+00 EUMP2 =    -0.15198465782635D+03
 Optimization completed.
    -- Stationary point found.
 Normal termination of Gaussian 16 at Fri Dec 17 14:10:52 2021.

 ----------------------------------------------------------------------
 #N Geom=AllCheck Guess=TCheck SCRF=Check GenChk RMP2(FC)/Aug-CC-pVDZ F
 req
 ----------------------------------------------------------------------

 Structure from the checkpoint file:  "/gscratch/scrubbed/gds001/Gau-30212.chk"
 ----
 bleh
 ----
 Charge =  0 Multiplicity = 1

                         Standard orientation:
 ---------------------------------------------------------------------
 Center     Atomic      Atomic             Coordinates (Angstroms)
 Number     Number       Type             X           Y           Z
 ---------------------------------------------------------------------
      1          7           0        0.899025    0.718966   -0.122734
      2          6           0        1.687424   -0.514113    0.022899
      3          1           0        1.258887    1.434966    0.508030
      4          1           0       -0.067732    0.540128    0.160803
      5          7           0       -2.227475   -0.114323    0.042628
      6          1           0       -2.468009   -1.104045    0.099471
      7          1           0       -2.271988    0.134480   -0.946176
      8          1           0       -2.987583    0.390485    0.498675
      9          1           0        2.725724   -0.325326   -0.289777
     10          1           0        1.276793   -1.279996   -0.652597
     11          1           0        1.708515   -0.938514    1.044924
 ---------------------------------------------------------------------

 SCF Done:  E(RHF) =  -151.436934554     A.U. after    8 cycles
 E2 =    -0.5476507689D+00 EUMP2 =    -0.15198458532312D+03
 E2 =    -0.5476507689D+00 EUMP2 =    -0.15198458532312D+03
 SCF Done:  E(RHF) =  -151.438160544     A.U. after    8 cycles
 E2 =    -0.5464231007D+00 EUMP2 =    -0.15198458364466D+03
 E2 =    -0.5464231007D+00 EUMP2 =    -0.15198458364466D+03
 SCF Done:  E(RHF) =  -151.437453406     A.U. after    9 cycles
 E2 =    -0.5471312046D+00 EUMP2 =    -0.15198458461071D+03
 E2 =    -0.5471312046D+00 EUMP2 =    -0.15198458461071D+03
 SCF Done:  E(RHF) =  -151.437641434     A.U. after    9 cycles
 E2 =    -0.5469424462D+00 EUMP2 =    -0.15198458388011D+03
 E2 =    -0.5469424462D+00 EUMP2 =    -0.15198458388011D+03
 SCF Done:  E(RHF) =  -151.437612062     A.U. after    8 cycles
 E2 =    -0.5469659997D+00 EUMP2 =    -0.15198457806162D+03
 E2 =    -0.5469659997D+00 EUMP2 =    -0.15198457806162D+03
 SCF Done:  E(RHF) =  -151.437474891     A.U. after    9 cycles
 E2 =    -0.5471048360D+00 EUMP2 =    -0.15198457972679D+03
 E2 =    -0.5471048360D+00 EUMP2 =    -0.15198457972679D+03
 SCF Done:  E(RHF) =  -151.437553970     A.U. after    8 cycles
 E2 =    -0.5470239429D+00 EUMP2 =    -0.15198457791265D+03
 E2 =    -0.5470239429D+00 EUMP2 =    -0.15198457791265D+03
 SCF Done:  E(RHF) =  -151.437530150     A.U. after    8 cycles
 E2 =    -0.5470461585D+00 EUMP2 =    -0.15198457630849D+03
 E2 =    -0.5470461585D+00 EUMP2 =    -0.15198457630849D+03
 SCF Done:  E(RHF) =  -151.437542912     A.U. after    8 cycles
 E2 =    -0.5470338771D+00 EUMP2 =    -0.15198457678890D+03
 E2 =    -0.5470338771D+00 EUMP2 =    -0.15198457678890D+03
 SCF Done:  E(RHF) =  -151.437540872     A.U. after    8 cycles
 E2 =    -0.5470361424D+00 EUMP2 =    -0.15198457701483D+03
 E2 =    -0.5470361424D+00 EUMP2 =    -0.15198457701483D+03

 Alpha  occ. eigenvalues --  -15.56403 -15.52648 -11.23851  -1.15320  -1.14533
 Alpha  occ. eigenvalues --   -0.87604  -0.64318  -0.63621  -0.63026  -0.58284
 Alpha  occ. eigenvalues --   -0.53543  -0.49988  -0.44014  -0.37075
 Alpha virt. eigenvalues --    0.03157   0.04839   0.05200   0.05771   0.06944
 Alpha virt. eigenvalues --    0.07330   0.07895   0.10437   0.12877   0.16443
 Alpha virt. eigenvalues --    0.16563   0.17605   0.18457   0.19056   0.20175

 Mulliken charges:
               1
     1  N   -0.239123
     2  C    0.740435
     3  H    0.014566
     4  H   -0.029022
     5  N   -0.125007
     6  H    0.037049
     7  H   -0.001456
     8  H    0.055066
     9  H   -0.178729
    10  H   -0.160522
    11  H   -0.113256
 Sum of Mulliken charges =  -0.00000

 Dipole moment (field-independent basis, Debye):
    X=             -1.9969    Y=             -0.7499    Z=              0.7302  Tot=              2.2546
 Quadrupole moment (field-independent basis, Debye-Ang):
   XX=            -15.8924   YY=            -21.3702   ZZ=            -22.8891
   XY=              0.2298   XZ=              1.5813   YZ=              2.0354

  Exact polarizability:  44.482  -1.015  39.688   1.053  -0.463  37.528
 Approx polarizability:  31.584  -0.250  31.945   0.115   0.170  31.113

                      1                      2                      3
                      A                      A                      A
 Frequencies --     37.0517                39.3485                70.5411
 Red. masses --      1.2840                 1.5858                 1.1208
 Frc consts  --      0.0010                 0.0014                 0.0033
 IR Inten    --      0.9276                 3.6236                42.4563

                      4                      5                      6
                      A                      A                      A
 Frequencies --    143.0744               164.9233               196.6303
 Red. masses --      2.5285                 1.2054                 1.2325
 Frc consts  --      0.0305                 0.0193                 0.0281
 IR Inten    --     10.2822                31.1821                27.2558

                      7                      8                      9
                      A                      A                      A
 Frequencies --    435.1272               898.9609               999.2379
 Red. masses --      1.0699                 1.1970                 1.0914
 Frc consts  --      0.1193                 0.5699                 0.6420
 IR Inten    --     45.7885               113.4265                 8.1439

                     10                     11                     12
                      A                      A                      A
 Frequencies --   1077.5254              1080.4878              1178.3943
 Red. masses --      3.1743                 1.1790                 1.4136
 Frc consts  --      2.1715                 0.8110                 1.1566
 IR Inten    --      9.0438               142.5911                 7.4613

                     13                     14                     15
                      A                      A                      A
 Frequencies --   1365.5501              1439.8498              1492.4107
 Red. masses --      1.3101                 1.1703                 1.0489
 Frc consts  --      1.4394                 1.4295                 1.3764
 IR Inten    --      0.8767                 2.9508                 6.2143

                     16                     17                     18
                      A                      A                      A
 Frequencies --   1513.3598              1646.6689              1649.5874
 Red. masses --      1.0323                 1.0651                 1.0648
 Frc consts  --      1.3929                 1.7016                 1.7072
 IR Inten    --      2.8452                18.5944                14.2219

                     19                     20                     21
                      A                      A                      A
 Frequencies --   1666.6371              3025.6666              3116.7130
 Red. masses --      1.0769                 1.0465                 1.0886
 Frc consts  --      1.7625                 5.6447                 6.2302
 IR Inten    --      7.7161                83.8703                37.5866

                     22                     23                     24
                      A                      A                      A
 Frequencies --   3157.4068              3473.5722              3478.5854
 Red. masses --      1.1024                 1.0358                 1.0450
 Frc consts  --      6.4754                 7.3633                 7.4504
 IR Inten    --     34.2770                16.9604                74.4149

                     25                     26                     27
                      A                      A                      A
 Frequencies --   3590.4437              3627.0579              3631.3014
 Red. masses --      1.0902                 1.0889                 1.0887
 Frc consts  --      8.2804                 8.4397                 8.4585
 IR Inten    --     39.0275                 8.3143                 7.3633

 - Thermochemistry -
 -------------------
 Temperature   298.150 Kelvin.  Pressure   1.00000 Atm.
 Atom     1 has atomic number  7 and mass  14.00307

 Molecular mass:    48.06875 amu.
 Principal axes and moments of inertia in atomic units:
                           1         2         3
     Eigenvalues --    72.36737 543.65064 592.75595
           X            0.99993  -0.00861   0.00778
           Y            0.00820   0.99867   0.05084
           Z           -0.00820  -0.05078   0.99868
 This molecule is an asymmetric top.
 Rotational symmetry number  1.
 Rotational temperatures (Kelvin)      1.19686     0.15932     0.14612
 Rotational constants (GHZ):          24.93861     3.31967     3.04466
 Zero-point vibrational energy     264351.5 (Joules/Mol)
                                   63.18152 (Kcal/Mol)
 Warning -- explicit consideration of   7 degrees of freedom as
           vibrations may cause significant error
 Vibrational temperatures:     53.31    56.61   101.49   205.85   237.29
          (Kelvin)            282.91   626.05  1293.40  1437.68  1550.32
                             1554.58  1695.45  1964.72  2071.62  2147.25
                             2177.39  2369.19  2373.39  2397.92  4353.26
                             4484.25  4542.80  4997.70  5004.91  5165.85
                             5218.53  5224.63

 Zero-point correction=                           0.100686 (Hartree/Particle)
 Thermal correction to Energy=                    0.108343
 Thermal correction to Enthalpy=                  0.109287
 Thermal correction to Gibbs Free Energy=         0.068526
 Sum of electronic and zero-point Energies=           -151.883980
 Sum of electronic and thermal Energies=              -151.876323
 Sum of electronic and thermal Enthalpies=            -151.875379
 Sum of electronic and thermal Free Energies=         -151.916140

                     E (Thermal)             CV                S
                      KCal/Mol        Cal/Mol-Kelvin    Cal/Mol-Kelvin
 Total                   67.986             21.113             85.788
 Electronic               0.000              0.000              0.000
 Translational            0.889              2.981             37.534
 Rotational               0.889              2.981             24.659
 Vibrational             66.209             15.151             23.595
 Vibration     1          0.594              1.982              5.411
 Vibration     2          0.594              1.981              5.292
 Vibration     3          0.598              1.968              4.138
 Vibration     4          0.616              1.910              2.762
 Vibration     5          0.623              1.886              2.493
 Vibration     6          0.636              1.845              2.164
 Vibration     7          0.796              1.394              0.842

 ## DEPERTURBED TRANSITIONS MOMENTS ##

 Electric dipole : Fundamental Bands
 ------------------------------------------------------------------------

 ## AFTER VARIATIONAL CORRECTION

 Electric dipole : Fundamental Bands
 ------------------------------------------------------------------------

 Optimization completed.
    -- Stationary point found.
 Normal termination of Gaussian 16 at Fri Dec 17 15:25:09 2021.
