 Gaussian 16, Revision C.01,
 Gaussian 16:  EM64L-G16RevC.01  3-Jul-2019

 ----------------------------------------------
 # MP2/aug-cc-pVDZ opt freq=(vibrot,anharmonic)
 ----------------------------------------------

 ----
 blah
 ----
 Symbolic Z-matrix:
 Charge =  0 Multiplicity = 1

 SCF Done:  E(RHF) =  -321.877807325     A.U. after   14 cycles
 E2 =    -0.1004529729D+01 EUMP2 =    -0.32288233705371D+03
 SCF Done:  E(RHF) =  -321.877024348     A.U. after   13 cycles
 E2 =    -0.1007714082D+01 EUMP2 =    -0.32288473843065D+03
 SCF Done:  E(RHF) =  -321.874030925     A.U. after   14 cycles
 E2 =    -0.1009182562D+01 EUMP2 =    -0.32288321348727D+03
 SCF Done:  E(RHF) =  -321.878075755     A.U. after   11 cycles
 E2 =    -0.1007208242D+01 EUMP2 =    -0.32288528399698D+03
 SCF Done:  E(RHF) =  -321.878400447     A.U. after   11 cycles
 E2 =    -0.1006907261D+01 EUMP2 =    -0.32288530770798D+03
 SCF Done:  E(RHF) =  -321.878813369     A.U. after   13 cycles
 E2 =    -0.1006303315D+01 EUMP2 =    -0.32288511668462D+03
 SCF Done:  E(RHF) =  -321.878768618     A.U. after   13 cycles
 E2 =    -0.1006539454D+01 EUMP2 =    -0.32288530807246D+03
 SCF Done:  E(RHF) =  -321.878634141     A.U. after   10 cycles
 E2 =    -0.1006684400D+01 EUMP2 =    -0.32288531854132D+03
 SCF Done:  E(RHF) =  -321.878626437     A.U. after   10 cycles
 E2 =    -0.1006696236D+01 EUMP2 =    -0.32288532267335D+03
 SCF Done:  E(RHF) =  -321.878623078     A.U. after   10 cycles
 E2 =    -0.1006700886D+01 EUMP2 =    -0.32288532396387D+03
 E2 =    -0.1006713123D+01 EUMP2 =    -0.32288532518130D+03
 E2 =    -0.1006723223D+01 EUMP2 =    -0.32288532592192D+03
 Optimization completed.
    -- Stationary point found.
 Normal termination of Gaussian 16 at Sat Mar 22 15:14:34 2025.

 ----------------------------------------------------------------------
 #N Geom=AllCheck Guess=TCheck SCRF=Check GenChk RMP2(FC)/Aug-CC-pVDZ F
 req
 ----------------------------------------------------------------------

 Structure from the checkpoint file:  "/scr/Gau-54136.chk"
 ----
 blah
 ----
 Charge =  0 Multiplicity = 1

                         Standard orientation:
 ---------------------------------------------------------------------
 Center     Atomic      Atomic             Coordinates (Angstroms)
 Number     Number       Type             X           Y           Z
 ---------------------------------------------------------------------
      1          6           0       -0.233715    0.628926   -0.000062
      2          6           0        1.124019    0.763823    0.000018
      3          1           0       -0.877443    1.519006   -0.000097
      4          8           0       -0.869623   -0.562111   -0.000129
      5          6           0        2.039940   -0.378734    0.000057
      6          1           0       -1.849546   -0.394874   -0.000255
      7          8           0        3.272454   -0.270209    0.000023
      8          1           0        1.549182    1.769846    0.000016
      9          1           0        1.564801   -1.384869   -0.000057
     10          7           0       -3.602685   -0.102346   -0.000037
     11          1           0       -4.065596   -1.011830   -0.017361
     12          1           0       -3.953450    0.381303    0.827126
     13          1           0       -3.953257    0.412307   -0.808345
 ---------------------------------------------------------------------

 E2 =    -0.1006723219D+01 EUMP2 =    -0.32288532591734D+03
 E2 =    -0.1006723219D+01 EUMP2 =    -0.32288532591734D+03
 E2 =    -0.1006724321D+01 EUMP2 =    -0.32288532587232D+03
 E2 =    -0.1006724321D+01 EUMP2 =    -0.32288532587232D+03
 E2 =    -0.1006724414D+01 EUMP2 =    -0.32288532595054D+03
 E2 =    -0.1006724414D+01 EUMP2 =    -0.32288532595054D+03
 E2 =    -0.1006723333D+01 EUMP2 =    -0.32288532590120D+03
 E2 =    -0.1006723333D+01 EUMP2 =    -0.32288532590120D+03
 SCF Done:  E(RHF) =  -321.878787572     A.U. after   10 cycles
 E2 =    -0.1006466095D+01 EUMP2 =    -0.32288525366709D+03
 E2 =    -0.1006466095D+01 EUMP2 =    -0.32288525366709D+03
 SCF Done:  E(RHF) =  -321.878275091     A.U. after   10 cycles
 E2 =    -0.1006980582D+01 EUMP2 =    -0.32288525567276D+03
 E2 =    -0.1006980582D+01 EUMP2 =    -0.32288525567276D+03
 SCF Done:  E(RHF) =  -321.878018931     A.U. after   10 cycles
 E2 =    -0.1007238065D+01 EUMP2 =    -0.32288525699576D+03
 E2 =    -0.1007238065D+01 EUMP2 =    -0.32288525699576D+03
 SCF Done:  E(RHF) =  -321.879042178     A.U. after   10 cycles
 E2 =    -0.1006208728D+01 EUMP2 =    -0.32288525090536D+03
 E2 =    -0.1006208728D+01 EUMP2 =    -0.32288525090536D+03
 SCF Done:  E(RHF) =  -321.878091820     A.U. after    8 cycles
 E2 =    -0.1007153488D+01 EUMP2 =    -0.32288524530841D+03
 E2 =    -0.1007153488D+01 EUMP2 =    -0.32288524530841D+03
 SCF Done:  E(RHF) =  -321.878947877     A.U. after    8 cycles
 E2 =    -0.1006295337D+01 EUMP2 =    -0.32288524321356D+03
 E2 =    -0.1006295337D+01 EUMP2 =    -0.32288524321356D+03
 SCF Done:  E(RHF) =  -321.878520823     A.U. after    8 cycles
 E2 =    -0.1006717264D+01 EUMP2 =    -0.32288523808742D+03
 E2 =    -0.1006717264D+01 EUMP2 =    -0.32288523808742D+03
 SCF Done:  E(RHF) =  -321.878508162     A.U. after    8 cycles
 E2 =    -0.1006728290D+01 EUMP2 =    -0.32288523645210D+03
 E2 =    -0.1006728290D+01 EUMP2 =    -0.32288523645210D+03
 SCF Done:  E(RHF) =  -321.878514498     A.U. after    8 cycles
 E2 =    -0.1006722527D+01 EUMP2 =    -0.32288523702506D+03
 E2 =    -0.1006722527D+01 EUMP2 =    -0.32288523702506D+03
 SCF Done:  E(RHF) =  -321.878514129     A.U. after    8 cycles
 E2 =    -0.1006722969D+01 EUMP2 =    -0.32288523709769D+03
 E2 =    -0.1006722969D+01 EUMP2 =    -0.32288523709769D+03

 Alpha  occ. eigenvalues --  -20.59534 -20.53512 -15.61128 -11.33253 -11.31961
 Alpha  occ. eigenvalues --  -11.22575  -1.40719  -1.34923  -1.20169  -1.04778
 Alpha  occ. eigenvalues --   -0.86527  -0.77158  -0.72913  -0.68465  -0.68105
 Alpha  occ. eigenvalues --   -0.66475  -0.60431  -0.57845  -0.56544  -0.54767
 Alpha  occ. eigenvalues --   -0.50137  -0.48833  -0.40087  -0.34137
 Alpha virt. eigenvalues --    0.01282   0.03729   0.04163   0.05015   0.06184
 Alpha virt. eigenvalues --    0.07057   0.08558   0.09431   0.11741   0.12899
 Alpha virt. eigenvalues --    0.13554   0.14923   0.14950   0.15816   0.16279

 Mulliken charges:
               1
     1  C    0.838256
     2  C    0.476919
     3  H   -0.438375
     4  O   -0.616417
     5  C    0.622235
     6  H    0.353835
     7  O   -0.572290
     8  H   -0.450231
     9  H   -0.171776
    10  N   -0.174552
    11  H    0.028520
    12  H    0.040708
    13  H    0.063168
 Sum of Mulliken charges =  -0.00000

 Dipole moment (field-independent basis, Debye):
    X=             -8.8400    Y=              1.1877    Z=             -0.0050  Tot=              8.9195
 Quadrupole moment (field-independent basis, Debye-Ang):
   XX=            -32.7905   YY=            -35.3708   ZZ=            -37.7086
   XY=              0.4270   XZ=              0.0293   YZ=             -0.0139

  Exact polarizability:     100.523      -1.107      55.563       0.064      -0.058      43.321
 Approx polarizability:      67.886       0.055      46.408       0.042      -0.055      41.424

                      1                      2                      3
                      A                      A                      A
 Frequencies --     29.7854                48.6253                62.3744
 Red. masses --      1.0754                 5.0114                 3.7704
 Frc consts  --      0.0006                 0.0070                 0.0086
 IR Inten    --      0.0562                 1.8322                 0.6588

                      4                      5                      6
                      A                      A                      A
 Frequencies --    159.2039               162.4998               264.9670
 Red. masses --      3.0604                 4.8233                 3.8737
 Frc consts  --      0.0457                 0.0750                 0.1602
 IR Inten    --      9.3660                 4.5607                20.2891

                      7                      8                      9
                      A                      A                      A
 Frequencies --    289.9409               353.2164               390.2486
 Red. masses --      1.1988                 1.2904                 2.3061
 Frc consts  --      0.0594                 0.0949                 0.2069
 IR Inten    --      5.5908                20.5947                24.8767

                     10                     11                     12
                      A                      A                      A
 Frequencies --    472.0847               712.3391               794.0508
 Red. masses --      5.6104                 5.2979                 1.2253
 Frc consts  --      0.7367                 1.5839                 0.4552
 IR Inten    --     23.3413                 6.7477                24.1033

                     13                     14                     15
                      A                      A                      A
 Frequencies --    935.5745               967.3815              1013.0734
 Red. masses --      1.3796                 1.1085                 1.5783
 Frc consts  --      0.7115                 0.6112                 0.9544
 IR Inten    --     27.0379                64.4844                 0.1721

                     16                     17                     18
                      A                      A                      A
 Frequencies --   1031.1962              1151.6183              1174.3627
 Red. masses --      3.0617                 1.1871                 1.9216
 Frc consts  --      1.9182                 0.9276                 1.5614
 IR Inten    --    101.1653               160.6133                51.7831

                     19                     20                     21
                      A                      A                      A
 Frequencies --   1262.3003              1370.5719              1447.5199
 Red. masses --      1.5315                 1.2262                 1.7076
 Frc consts  --      1.4378                 1.3571                 2.1081
 IR Inten    --    121.7640                22.5984                79.7259

                     22                     23                     24
                      A                      A                      A
 Frequencies --   1476.3407              1645.9302              1648.1004
 Red. masses --      1.3050                 1.0991                 1.0612
 Frc consts  --      1.6758                 1.7544                 1.6983
 IR Inten    --    124.8628                10.3063                18.1904

                     25                     26                     27
                      A                      A                      A
 Frequencies --   1680.3431              1716.7109              3005.4724
 Red. masses --      5.6764                 3.8307                 1.0852
 Frc consts  --      9.4433                 6.6515                 5.7752
 IR Inten    --     85.4831               381.3868                51.2446

                     28                     29                     30
                      A                      A                      A
 Frequencies --   3164.8486              3246.8337              3262.9119
 Red. masses --      1.0897                 1.0941                 1.0722
 Frc consts  --      6.4311                 6.7955                 6.7259
 IR Inten    --     41.6164                31.8607              2023.1396

                     31                     32                     33
                      A                      A                      A
 Frequencies --   3476.1373              3621.7836              3625.9637
 Red. masses --      1.0285                 1.0886                 1.0889
 Frc consts  --      7.3221                 8.4130                 8.4353
 IR Inten    --      1.7138                18.9806                18.2523

 - Thermochemistry -
 -------------------
 Temperature   298.150 Kelvin.  Pressure   1.00000 Atm.
 Atom     1 has atomic number  6 and mass  12.00000

 Molecular mass:    89.04768 amu.
 Principal axes and moments of inertia in atomic units:
                           1         2         3
     Eigenvalues --   107.446381742.791091840.60752
           X            1.00000   0.00169  -0.00001
           Y           -0.00169   1.00000  -0.00001
           Z            0.00001   0.00001   1.00000
 This molecule is an asymmetric top.
 Rotational symmetry number  1.
 Rotational temperatures (Kelvin)      0.80611     0.04970     0.04706
 Rotational constants (GHZ):          16.79667     1.03555     0.98051
 Zero-point vibrational energy     273133.2 (Joules/Mol)
                                   65.28041 (Kcal/Mol)
 Warning -- explicit consideration of  10 degrees of freedom as
           vibrations may cause significant error
 Vibrational temperatures:     42.85    69.96    89.74   229.06   233.80
          (Kelvin)            381.23   417.16   508.20   561.48   679.22
                             1024.90  1142.46  1346.08  1391.85  1457.59
                             1483.66  1656.92  1689.65  1816.17  1971.95
                             2082.66  2124.12  2368.13  2371.25  2417.64
                             2469.96  4324.20  4553.51  4671.47  4694.60
                             5001.39  5210.94  5216.95

 Zero-point correction=                           0.104031 (Hartree/Particle)
 Thermal correction to Energy=                    0.112885
 Thermal correction to Enthalpy=                  0.113829
 Thermal correction to Gibbs Free Energy=         0.069180
 Sum of electronic and zero-point Energies=           -322.781295
 Sum of electronic and thermal Energies=              -322.772441
 Sum of electronic and thermal Enthalpies=            -322.771497
 Sum of electronic and thermal Free Energies=         -322.816146

                     E (Thermal)             CV                S
                      KCal/Mol        Cal/Mol-Kelvin    Cal/Mol-Kelvin
 Total                   70.836             27.599             93.972
 Electronic               0.000              0.000              0.000
 Translational            0.889              2.981             39.372
 Rotational               0.889              2.981             27.335
 Vibrational             69.059             21.637             27.265
 Vibration     1          0.594              1.984              5.844
 Vibration     2          0.595              1.978              4.873
 Vibration     3          0.597              1.972              4.381
 Vibration     4          0.621              1.892              2.559
 Vibration     5          0.623              1.888              2.520
 Vibration     6          0.671              1.737              1.629
 Vibration     7          0.686              1.692              1.474
 Vibration     8          0.729              1.569              1.152
 Vibration     9          0.758              1.491              0.999
 Vibration    10          0.829              1.312              0.732

 ## DEPERTURBED TRANSITIONS MOMENTS ##

 Electric dipole : Fundamental Bands
 ------------------------------------------------------------------------

 ## AFTER VARIATIONAL CORRECTION

 Electric dipole : Fundamental Bands
 ------------------------------------------------------------------------

                           ! Non-Optimized Parameters !
 Normal termination of Gaussian 16 at Sat Mar 22 20:53:31 2025.
