 Gaussian 16, Revision C.01,
 Gaussian 16:  EM64L-G16RevC.01  3-Jul-2019

 ----------------------------------------------
 # MP2/aug-cc-pVDZ opt freq=(vibrot,anharmonic)
 ----------------------------------------------

 ----
 blah
 ----
 Symbolic Z-matrix:
 Charge =  0 Multiplicity = 1

 SCF Done:  E(RHF) =  -341.709926753     A.U. after   15 cycles
 E2 =    -0.1022558758D+01 EUMP2 =    -0.34273248551182D+03
 SCF Done:  E(RHF) =  -341.710344956     A.U. after   13 cycles
 E2 =    -0.1024739525D+01 EUMP2 =    -0.34273508448197D+03
 SCF Done:  E(RHF) =  -341.709019396     A.U. after   13 cycles
 E2 =    -0.1025351965D+01 EUMP2 =    -0.34273437136117D+03
 SCF Done:  E(RHF) =  -341.711693314     A.U. after   11 cycles
 E2 =    -0.1024001294D+01 EUMP2 =    -0.34273569460817D+03
 SCF Done:  E(RHF) =  -341.712004305     A.U. after   11 cycles
 E2 =    -0.1023766790D+01 EUMP2 =    -0.34273577109447D+03
 SCF Done:  E(RHF) =  -341.712495893     A.U. after   12 cycles
 E2 =    -0.1023384062D+01 EUMP2 =    -0.34273587995464D+03
 SCF Done:  E(RHF) =  -341.712566848     A.U. after   12 cycles
 E2 =    -0.1023330394D+01 EUMP2 =    -0.34273589724125D+03
 SCF Done:  E(RHF) =  -341.712417707     A.U. after   11 cycles
 E2 =    -0.1023522529D+01 EUMP2 =    -0.34273594023633D+03
 SCF Done:  E(RHF) =  -341.712246495     A.U. after   12 cycles
 E2 =    -0.1023708133D+01 EUMP2 =    -0.34273595462755D+03
 SCF Done:  E(RHF) =  -341.712262142     A.U. after   11 cycles
 E2 =    -0.1023722808D+01 EUMP2 =    -0.34273598495048D+03
 E2 =    -0.1023831137D+01 EUMP2 =    -0.34273601436020D+03
 E2 =    -0.1024029774D+01 EUMP2 =    -0.34273604063391D+03
 E2 =    -0.1023903424D+01 EUMP2 =    -0.34273604280872D+03
 E2 =    -0.1023915563D+01 EUMP2 =    -0.34273604593877D+03
 E2 =    -0.1023963491D+01 EUMP2 =    -0.34273604882694D+03
 E2 =    -0.1023955673D+01 EUMP2 =    -0.34273604889490D+03
 Optimization completed.
    -- Stationary point found.
 Normal termination of Gaussian 16 at Sat Mar 22 11:51:39 2025.

 ----------------------------------------------------------------------
 #N Geom=AllCheck Guess=TCheck SCRF=Check GenChk RMP2(FC)/Aug-CC-pVDZ F
 req
 ----------------------------------------------------------------------

 Structure from the checkpoint file:  "/scr/Gau-26089.chk"
 ----
 blah
 ----
 Charge =  0 Multiplicity = 1

                         Standard orientation:
 ---------------------------------------------------------------------
 Center     Atomic      Atomic             Coordinates (Angstroms)
 Number     Number       Type             X           Y           Z
 ---------------------------------------------------------------------
      1          6           0       -0.251870    0.614753    0.000465
      2          6           0        1.102671    0.761022   -0.000048
      3          1           0       -0.912588    1.490130    0.000449
      4          8           0       -0.867495   -0.594495    0.000992
      5          6           0        2.031800   -0.372716   -0.000050
      6          1           0       -1.834999   -0.448457    0.001339
      7          8           0        3.262142   -0.248297   -0.000533
      8          1           0        1.517249    1.771335   -0.000477
      9          1           0        1.569364   -1.384548    0.000442
     10          8           0       -3.573516   -0.017875   -0.000535
     11          1           0       -4.099409   -0.282322   -0.767333
     12          1           0       -4.104265   -0.279163    0.763980
 ---------------------------------------------------------------------

 E2 =    -0.1023955651D+01 EUMP2 =    -0.34273604887245D+03
 E2 =    -0.1023955651D+01 EUMP2 =    -0.34273604887245D+03
 E2 =    -0.1023955811D+01 EUMP2 =    -0.34273604884924D+03
 E2 =    -0.1023955811D+01 EUMP2 =    -0.34273604884924D+03
 SCF Done:  E(RHF) =  -341.711895293     A.U. after    9 cycles
 E2 =    -0.1024086095D+01 EUMP2 =    -0.34273598138856D+03
 E2 =    -0.1024086095D+01 EUMP2 =    -0.34273598138856D+03
 SCF Done:  E(RHF) =  -341.712152058     A.U. after    9 cycles
 E2 =    -0.1023826786D+01 EUMP2 =    -0.34273597884422D+03
 E2 =    -0.1023826786D+01 EUMP2 =    -0.34273597884422D+03
 SCF Done:  E(RHF) =  -341.712214012     A.U. after   10 cycles
 E2 =    -0.1023762105D+01 EUMP2 =    -0.34273597611690D+03
 E2 =    -0.1023762105D+01 EUMP2 =    -0.34273597611690D+03
 SCF Done:  E(RHF) =  -341.711829416     A.U. after   10 cycles
 E2 =    -0.1024149479D+01 EUMP2 =    -0.34273597889499D+03
 E2 =    -0.1024149479D+01 EUMP2 =    -0.34273597889499D+03
 SCF Done:  E(RHF) =  -341.711444169     A.U. after   10 cycles
 E2 =    -0.1024520165D+01 EUMP2 =    -0.34273596433414D+03
 E2 =    -0.1024520165D+01 EUMP2 =    -0.34273596433414D+03
 SCF Done:  E(RHF) =  -341.712566865     A.U. after   10 cycles
 E2 =    -0.1023392808D+01 EUMP2 =    -0.34273595967250D+03
 E2 =    -0.1023392808D+01 EUMP2 =    -0.34273595967250D+03
 SCF Done:  E(RHF) =  -341.711395624     A.U. after    9 cycles
 E2 =    -0.1024557545D+01 EUMP2 =    -0.34273595316869D+03
 E2 =    -0.1024557545D+01 EUMP2 =    -0.34273595316869D+03
 SCF Done:  E(RHF) =  -341.712593320     A.U. after    9 cycles
 E2 =    -0.1023356705D+01 EUMP2 =    -0.34273595002467D+03
 E2 =    -0.1023356705D+01 EUMP2 =    -0.34273595002467D+03
 SCF Done:  E(RHF) =  -341.711990390     A.U. after    8 cycles
 E2 =    -0.1023954519D+01 EUMP2 =    -0.34273594490944D+03
 E2 =    -0.1023954519D+01 EUMP2 =    -0.34273594490944D+03
 SCF Done:  E(RHF) =  -341.711989590     A.U. after    8 cycles
 E2 =    -0.1023955404D+01 EUMP2 =    -0.34273594499411D+03
 E2 =    -0.1023955404D+01 EUMP2 =    -0.34273594499411D+03

 Alpha  occ. eigenvalues --  -20.63570 -20.60606 -20.53925 -11.33540 -11.32337
 Alpha  occ. eigenvalues --  -11.23030  -1.42069  -1.40743  -1.35345  -1.05299
 Alpha  occ. eigenvalues --   -0.86989  -0.78004  -0.77219  -0.73601  -0.67013
 Alpha  occ. eigenvalues --   -0.64892  -0.60446  -0.58610  -0.57607  -0.56271
 Alpha  occ. eigenvalues --   -0.54249  -0.50532  -0.40487  -0.34702
 Alpha virt. eigenvalues --    0.01155   0.04091   0.04390   0.05217   0.06767
 Alpha virt. eigenvalues --    0.07817   0.09050   0.11474   0.12763   0.13574
 Alpha virt. eigenvalues --    0.14341   0.14776   0.15885   0.16080   0.16696

 Mulliken charges:
               1
     1  C    0.832765
     2  C    0.474110
     3  H   -0.425799
     4  O   -0.563189
     5  C    0.611575
     6  H    0.265038
     7  O   -0.565620
     8  H   -0.442926
     9  H   -0.167560
    10  O   -0.341431
    11  H    0.152256
    12  H    0.170780
 Sum of Mulliken charges =  -0.00000

 Dipole moment (field-independent basis, Debye):
    X=             -8.4038    Y=              0.2765    Z=              0.0138  Tot=              8.4084
 Quadrupole moment (field-independent basis, Debye-Ang):
   XX=            -30.6673   YY=            -36.2700   ZZ=            -35.7648
   XY=              4.0722   XZ=             -0.0725   YZ=             -0.0027

  Exact polarizability:      90.675      -0.593      51.508      -0.091      -0.028      40.319
 Approx polarizability:      63.817       0.707      41.854      -0.065      -0.023      38.516

                      1                      2                      3
                      A                      A                      A
 Frequencies --     44.1285                53.5922               105.9536
 Red. masses --      5.4143                 4.5291                 1.0740
 Frc consts  --      0.0062                 0.0077                 0.0071
 IR Inten    --      0.9793                 3.3715                38.8197

                      4                      5                      6
                      A                      A                      A
 Frequencies --    150.6094               156.4672               235.1142
 Red. masses --      6.2829                 2.9909                 1.7508
 Frc consts  --      0.0840                 0.0431                 0.0570
 IR Inten    --      4.5241                 7.3578               108.6797

                      7                      8                      9
                      A                      A                      A
 Frequencies --    255.1841               273.6645               387.5496
 Red. masses --      1.1609                 2.3995                 2.3968
 Frc consts  --      0.0445                 0.1059                 0.2121
 IR Inten    --      1.7196               116.4022                25.3818

                     10                     11                     12
                      A                      A                      A
 Frequencies --    470.6837               701.2445               784.7915
 Red. masses --      5.6064                 5.1299                 1.1860
 Frc consts  --      0.7318                 1.4863                 0.4304
 IR Inten    --     21.2481                 8.8599                 0.7271

                     13                     14                     15
                      A                      A                      A
 Frequencies --    840.8847               946.2336              1012.2706
 Red. masses --      1.0964                 1.4206                 1.5992
 Frc consts  --      0.4568                 0.7494                 0.9655
 IR Inten    --    126.6498                 0.5879                 0.1332

                     16                     17                     18
                      A                      A                      A
 Frequencies --   1024.9683              1171.0005              1254.5156
 Red. masses --      3.1454                 1.9638                 1.4408
 Frc consts  --      1.9469                 1.5866                 1.3360
 IR Inten    --     96.5394                50.3230                86.7766

                     19                     20                     21
                      A                      A                      A
 Frequencies --   1367.5826              1394.2392              1449.3416
 Red. masses --      1.2523                 1.2929                 1.6404
 Frc consts  --      1.3800                 1.4808                 2.0302
 IR Inten    --     74.3919               139.8651                 8.3824

                     22                     23                     24
                      A                      A                      A
 Frequencies --   1626.8106              1678.4888              1714.2117
 Red. masses --      1.0900                 6.6096                 4.8127
 Frc consts  --      1.6997                10.9714                 8.3323
 IR Inten    --     50.5497                40.1177               395.8765

                     25                     26                     27
                      A                      A                      A
 Frequencies --   3007.7698              3189.6966              3249.6857
 Red. masses --      1.0853                 1.0906                 1.0946
 Frc consts  --      5.7846                 6.5374                 6.8109
 IR Inten    --     51.2772                 8.6522                 1.9931

                     28                     29                     30
                      A                      A                      A
 Frequencies --   3584.9736              3794.0242              3921.3695
 Red. masses --      1.0682                 1.0454                 1.0817
 Frc consts  --      8.0889                 8.8657                 9.8003
 IR Inten    --   1160.3337                14.2225               106.0516

 - Thermochemistry -
 -------------------
 Temperature   298.150 Kelvin.  Pressure   1.00000 Atm.
 Atom     1 has atomic number  6 and mass  12.00000

 Molecular mass:    90.03169 amu.
 Principal axes and moments of inertia in atomic units:
                           1         2         3
     Eigenvalues --   102.321671767.165531861.04756
           X            0.99999   0.00469   0.00001
           Y           -0.00469   0.99999   0.00007
           Z           -0.00001  -0.00008   1.00000
 This molecule is an asymmetric top.
 Rotational symmetry number  1.
 Rotational temperatures (Kelvin)      0.84649     0.04901     0.04654
 Rotational constants (GHZ):          17.63792     1.02126     0.96974
 Zero-point vibrational energy     238338.3 (Joules/Mol)
                                   56.96422 (Kcal/Mol)
 Warning -- explicit consideration of  10 degrees of freedom as
           vibrations may cause significant error
 Vibrational temperatures:     63.49    77.11   152.44   216.69   225.12
          (Kelvin)            338.28   367.15   393.74   557.60   677.21
                             1008.93  1129.14  1209.85  1361.42  1456.43
                             1474.70  1684.81  1804.97  1967.65  2006.00
                             2085.28  2340.62  2414.97  2466.37  4327.51
                             4589.26  4675.57  5157.98  5458.75  5641.98

 Zero-point correction=                           0.090778 (Hartree/Particle)
 Thermal correction to Energy=                    0.099731
 Thermal correction to Enthalpy=                  0.100675
 Thermal correction to Gibbs Free Energy=         0.056462
 Sum of electronic and zero-point Energies=           -342.645271
 Sum of electronic and thermal Energies=              -342.636318
 Sum of electronic and thermal Enthalpies=            -342.635374
 Sum of electronic and thermal Free Energies=         -342.679587

                     E (Thermal)             CV                S
                      KCal/Mol        Cal/Mol-Kelvin    Cal/Mol-Kelvin
 Total                   62.582             27.812             93.053
 Electronic               0.000              0.000              0.000
 Translational            0.889              2.981             39.405
 Rotational               0.889              2.981             27.311
 Vibrational             60.804             21.850             26.336
 Vibration     1          0.595              1.980              5.065
 Vibration     2          0.596              1.976              4.680
 Vibration     3          0.605              1.944              3.342
 Vibration     4          0.618              1.902              2.665
 Vibration     5          0.620              1.895              2.592
 Vibration     6          0.655              1.787              1.840
 Vibration     7          0.666              1.754              1.694
 Vibration     8          0.676              1.722              1.573
 Vibration     9          0.756              1.497              1.010
 Vibration    10          0.828              1.315              0.736

 ## DEPERTURBED TRANSITIONS MOMENTS ##

 Electric dipole : Fundamental Bands
 ------------------------------------------------------------------------

 ## AFTER VARIATIONAL CORRECTION

 Electric dipole : Fundamental Bands
 ------------------------------------------------------------------------

                           ! Non-Optimized Parameters !
 Normal termination of Gaussian 16 at Sat Mar 22 15:57:37 2025.
