 Gaussian 16, Revision C.01,
 Gaussian 16:  EM64L-G16RevC.01  3-Jul-2019

 ----------------------------------------------
 # MP2/aug-cc-pVDZ opt freq=(vibrot,anharmonic)
 ----------------------------------------------

 ----
 blah
 ----
 Symbolic Z-matrix:
 Charge =  0 Multiplicity = 1

 SCF Done:  E(RHF) =  -341.710288820     A.U. after   14 cycles
 E2 =    -0.1022808980D+01 EUMP2 =    -0.34273309779980D+03
 SCF Done:  E(RHF) =  -341.711347929     A.U. after   13 cycles
 E2 =    -0.1024361812D+01 EUMP2 =    -0.34273570974136D+03
 SCF Done:  E(RHF) =  -341.710522675     A.U. after   13 cycles
 E2 =    -0.1024529729D+01 EUMP2 =    -0.34273505240375D+03
 SCF Done:  E(RHF) =  -341.712779284     A.U. after   12 cycles
 E2 =    -0.1023461538D+01 EUMP2 =    -0.34273624082223D+03
 SCF Done:  E(RHF) =  -341.712913277     A.U. after   11 cycles
 E2 =    -0.1023360915D+01 EUMP2 =    -0.34273627419120D+03
 SCF Done:  E(RHF) =  -341.713165642     A.U. after   13 cycles
 E2 =    -0.1023050805D+01 EUMP2 =    -0.34273621644693D+03
 SCF Done:  E(RHF) =  -341.713641564     A.U. after   13 cycles
 E2 =    -0.1022619925D+01 EUMP2 =    -0.34273626148948D+03
 SCF Done:  E(RHF) =  -341.713297562     A.U. after   12 cycles
 E2 =    -0.1023002070D+01 EUMP2 =    -0.34273629963254D+03
 SCF Done:  E(RHF) =  -341.713216229     A.U. after   11 cycles
 E2 =    -0.1023091845D+01 EUMP2 =    -0.34273630807455D+03
 SCF Done:  E(RHF) =  -341.713203889     A.U. after   10 cycles
 E2 =    -0.1023109307D+01 EUMP2 =    -0.34273631319587D+03
 E2 =    -0.1023207943D+01 EUMP2 =    -0.34273631806416D+03
 E2 =    -0.1023319388D+01 EUMP2 =    -0.34273632305731D+03
 E2 =    -0.1023297876D+01 EUMP2 =    -0.34273632845833D+03
 E2 =    -0.1023365409D+01 EUMP2 =    -0.34273633677958D+03
 E2 =    -0.1023224013D+01 EUMP2 =    -0.34273635005917D+03
 E2 =    -0.1020673755D+01 EUMP2 =    -0.34269134792598D+03
 E2 =    -0.1023211663D+01 EUMP2 =    -0.34273641510548D+03
 E2 =    -0.1025135946D+01 EUMP2 =    -0.34273563389613D+03
 E2 =    -0.1023192967D+01 EUMP2 =    -0.34273608454907D+03
 E2 =    -0.1023204086D+01 EUMP2 =    -0.34273642000680D+03
 Optimization completed.
    -- Stationary point found.
 Normal termination of Gaussian 16 at Sat Mar 22 16:13:18 2025.

 ----------------------------------------------------------------------
 #N Geom=AllCheck Guess=TCheck SCRF=Check GenChk RMP2(FC)/Aug-CC-pVDZ F
 req
 ----------------------------------------------------------------------

 Structure from the checkpoint file:  "/scr/Gau-35124.chk"
 ----
 blah
 ----
 Charge =  0 Multiplicity = 1

                         Standard orientation:
 ---------------------------------------------------------------------
 Center     Atomic      Atomic             Coordinates (Angstroms)
 Number     Number       Type             X           Y           Z
 ---------------------------------------------------------------------
      1          6           0        0.040218   -0.323837    0.000081
      2          6           0       -1.214068   -0.850009    0.000082
      3          1           0        0.181577    0.763427   -0.000098
      4          8           0        1.151407   -1.091084    0.000216
      5          6           0       -2.382351    0.041279   -0.000086
      6          1           0        1.932956   -0.501363    0.000431
      7          8           0       -2.342843    1.277047   -0.000142
      8          1           0       -1.364987   -1.932530    0.000197
      9          1           0       -3.369892   -0.477089   -0.000174
     10          8           0        3.232423    0.728361   -0.000310
     11          1           0        3.813188    0.817741    0.766844
     12          1           0        3.816474    0.810623   -0.765769
 ---------------------------------------------------------------------

 SCF Done:  E(RHF) =  -341.712689836     A.U. after    9 cycles
 E2 =    -0.1023708732D+01 EUMP2 =    -0.34273639856784D+03
 E2 =    -0.1023708732D+01 EUMP2 =    -0.34273639856784D+03
 SCF Done:  E(RHF) =  -341.713036922     A.U. after    9 cycles
 E2 =    -0.1023359100D+01 EUMP2 =    -0.34273639602179D+03
 E2 =    -0.1023359100D+01 EUMP2 =    -0.34273639602179D+03
 SCF Done:  E(RHF) =  -341.713027478     A.U. after    9 cycles
 E2 =    -0.1023367140D+01 EUMP2 =    -0.34273639461786D+03
 E2 =    -0.1023367140D+01 EUMP2 =    -0.34273639461786D+03
 SCF Done:  E(RHF) =  -341.712698242     A.U. after    9 cycles
 E2 =    -0.1023698915D+01 EUMP2 =    -0.34273639715744D+03
 E2 =    -0.1023698915D+01 EUMP2 =    -0.34273639715744D+03
 SCF Done:  E(RHF) =  -341.712291651     A.U. after   10 cycles
 E2 =    -0.1024091277D+01 EUMP2 =    -0.34273638292854D+03
 E2 =    -0.1024091277D+01 EUMP2 =    -0.34273638292854D+03
 SCF Done:  E(RHF) =  -341.713400999     A.U. after   10 cycles
 E2 =    -0.1022976357D+01 EUMP2 =    -0.34273637735625D+03
 E2 =    -0.1022976357D+01 EUMP2 =    -0.34273637735625D+03
 SCF Done:  E(RHF) =  -341.712231961     A.U. after    9 cycles
 E2 =    -0.1024139240D+01 EUMP2 =    -0.34273637120187D+03
 E2 =    -0.1024139240D+01 EUMP2 =    -0.34273637120187D+03
 SCF Done:  E(RHF) =  -341.713437534     A.U. after    9 cycles
 E2 =    -0.1022929701D+01 EUMP2 =    -0.34273636723548D+03
 E2 =    -0.1022929701D+01 EUMP2 =    -0.34273636723548D+03
 SCF Done:  E(RHF) =  -341.712830046     A.U. after    8 cycles
 E2 =    -0.1023532465D+01 EUMP2 =    -0.34273636251135D+03
 E2 =    -0.1023532465D+01 EUMP2 =    -0.34273636251135D+03
 SCF Done:  E(RHF) =  -341.712830329     A.U. after    8 cycles
 E2 =    -0.1023532155D+01 EUMP2 =    -0.34273636248430D+03
 E2 =    -0.1023532155D+01 EUMP2 =    -0.34273636248430D+03

 Alpha  occ. eigenvalues --  -20.62990 -20.60462 -20.53703 -11.33114 -11.32860
 Alpha  occ. eigenvalues --  -11.22354  -1.41788  -1.40311  -1.35524  -1.04789
 Alpha  occ. eigenvalues --   -0.87570  -0.76724  -0.75965  -0.74808  -0.65732
 Alpha  occ. eigenvalues --   -0.63594  -0.61878  -0.58451  -0.58176  -0.56283
 Alpha  occ. eigenvalues --   -0.52156  -0.51016  -0.40740  -0.34211
 Alpha virt. eigenvalues --    0.01646   0.04433   0.04510   0.05799   0.06785
 Alpha virt. eigenvalues --    0.07325   0.08469   0.11747   0.12669   0.13357
 Alpha virt. eigenvalues --    0.14978   0.15014   0.15785   0.16548   0.16664

 Mulliken charges:
               1
     1  C    0.798435
     2  C    0.617644
     3  H   -0.423871
     4  O   -0.591719
     5  C    0.534480
     6  H    0.264050
     7  O   -0.562379
     8  H   -0.463507
     9  H   -0.147091
    10  O   -0.351659
    11  H    0.153730
    12  H    0.171887
 Sum of Mulliken charges =  -0.00000

 Dipole moment (field-independent basis, Debye):
    X=              5.6150    Y=             -0.5808    Z=             -0.0128  Tot=              5.6450
 Quadrupole moment (field-independent basis, Debye-Ang):
   XX=            -19.4234   YY=            -42.0244   ZZ=            -35.7249
   XY=             11.7249   XZ=             -0.0731   YZ=              0.0032

  Exact polarizability:      85.302      -2.784      57.063      -0.080      -0.011      40.199
 Approx polarizability:      56.223       0.386      47.692      -0.059      -0.001      38.380

                      1                      2                      3
                      A                      A                      A
 Frequencies --     44.3103                66.8831                84.6592
 Red. masses --      4.6905                 2.7501                 1.0723
 Frc consts  --      0.0054                 0.0072                 0.0045
 IR Inten    --      8.3536                16.6862                20.5960

                      4                      5                      6
                      A                      A                      A
 Frequencies --    186.8393               193.9254               196.9419
 Red. masses --      3.9606                 1.7001                 1.6959
 Frc consts  --      0.0815                 0.0377                 0.0388
 IR Inten    --     26.7657                 8.5198               122.0848

                      7                      8                      9
                      A                      A                      A
 Frequencies --    242.1437               255.0317               276.2223
 Red. masses --      3.2925                 3.4995                 1.2438
 Frc consts  --      0.1137                 0.1341                 0.0559
 IR Inten    --     79.5608                 0.1759                17.6610

                     10                     11                     12
                      A                      A                      A
 Frequencies --    455.6678               743.0351               806.7607
 Red. masses --      5.5826                 6.0933                 1.3394
 Frc consts  --      0.6829                 1.9821                 0.5136
 IR Inten    --      2.3632                85.3419                79.4141

                     13                     14                     15
                      A                      A                      A
 Frequencies --    859.2769               988.0568              1003.9811
 Red. masses --      1.1771                 1.2071                 2.1902
 Frc consts  --      0.5121                 0.6943                 1.3007
 IR Inten    --     44.8655                20.7294                47.5283

                     16                     17                     18
                      A                      A                      A
 Frequencies --   1006.3055              1200.0274              1278.1850
 Red. masses --      1.7185                 1.6650                 2.1156
 Frc consts  --      1.0253                 1.4127                 2.0364
 IR Inten    --      0.0574                26.5164               144.6730

                     19                     20                     21
                      A                      A                      A
 Frequencies --   1335.9532              1413.1789              1433.6336
 Red. masses --      1.5093                 1.1934                 1.4038
 Frc consts  --      1.5871                 1.4042                 1.6999
 IR Inten    --      2.9498                42.0485               164.0382

                     22                     23                     24
                      A                      A                      A
 Frequencies --   1625.5522              1675.4909              1731.9107
 Red. masses --      1.0904                 7.5652                 4.6891
 Frc consts  --      1.6975                12.5128                 8.2870
 IR Inten    --     37.3406               462.0268               170.6034

                     25                     26                     27
                      A                      A                      A
 Frequencies --   2971.9764              3204.2236              3236.5464
 Red. masses --      1.0841                 1.0924                 1.0932
 Frc consts  --      5.6419                 6.6084                 6.7468
 IR Inten    --    152.5228                 1.4261                 4.7460

                     28                     29                     30
                      A                      A                      A
 Frequencies --   3578.1153              3797.6310              3926.3456
 Red. masses --      1.0680                 1.0453                 1.0819
 Frc consts  --      8.0558                 8.8818                 9.8268
 IR Inten    --   1115.6608                14.5760               106.3122

 - Thermochemistry -
 -------------------
 Temperature   298.150 Kelvin.  Pressure   1.00000 Atm.
 Atom     1 has atomic number  6 and mass  12.00000

 Molecular mass:    90.03169 amu.
 Principal axes and moments of inertia in atomic units:
                           1         2         3
     Eigenvalues --   252.277461462.594751706.41846
           X            0.99961   0.02808   0.00001
           Y           -0.02808   0.99961   0.00008
           Z           -0.00001  -0.00008   1.00000
 This molecule is an asymmetric top.
 Rotational symmetry number  1.
 Rotational temperatures (Kelvin)      0.34333     0.05922     0.05076
 Rotational constants (GHZ):           7.15379     1.23393     1.05762
 Zero-point vibrational energy     238169.4 (Joules/Mol)
                                   56.92385 (Kcal/Mol)
 Warning -- explicit consideration of  10 degrees of freedom as
           vibrations may cause significant error
 Vibrational temperatures:     63.75    96.23   121.81   268.82   279.02
          (Kelvin)            283.36   348.39   366.93   397.42   655.60
                             1069.06  1160.75  1236.31  1421.59  1444.50
                             1447.85  1726.57  1839.02  1922.14  2033.25
                             2062.68  2338.81  2410.66  2491.83  4276.01
                             4610.16  4656.67  5148.11  5463.94  5649.14

 Zero-point correction=                           0.090714 (Hartree/Particle)
 Thermal correction to Energy=                    0.099768
 Thermal correction to Enthalpy=                  0.100712
 Thermal correction to Gibbs Free Energy=         0.056098
 Sum of electronic and zero-point Energies=           -342.645753
 Sum of electronic and thermal Energies=              -342.636699
 Sum of electronic and thermal Enthalpies=            -342.635754
 Sum of electronic and thermal Free Energies=         -342.680368

                     E (Thermal)             CV                S
                      KCal/Mol        Cal/Mol-Kelvin    Cal/Mol-Kelvin
 Total                   62.605             27.909             93.898
 Electronic               0.000              0.000              0.000
 Translational            0.889              2.981             39.405
 Rotational               0.889              2.981             27.934
 Vibrational             60.828             21.948             26.559
 Vibration     1          0.595              1.980              5.056
 Vibration     2          0.598              1.970              4.243
 Vibration     3          0.601              1.960              3.780
 Vibration     4          0.632              1.858              2.259
 Vibration     5          0.635              1.848              2.190
 Vibration     6          0.636              1.844              2.161
 Vibration     7          0.658              1.776              1.787
 Vibration     8          0.665              1.754              1.696
 Vibration     9          0.678              1.717              1.557
 Vibration    10          0.814              1.348              0.779

 ## DEPERTURBED TRANSITIONS MOMENTS ##

 Electric dipole : Fundamental Bands
 ------------------------------------------------------------------------

 ## AFTER VARIATIONAL CORRECTION

 Electric dipole : Fundamental Bands
 ------------------------------------------------------------------------

                           ! Non-Optimized Parameters !
 Normal termination of Gaussian 16 at Sat Mar 22 20:21:43 2025.
