 Gaussian 16, Revision C.01,
 Gaussian 16:  EM64L-G16RevC.01  3-Jul-2019

 ----------------------------------------------
 # MP2/aug-cc-pVDZ opt freq=(vibrot,anharmonic)
 ----------------------------------------------

 ----
 blah
 ----
 Symbolic Z-matrix:
 Charge =  0 Multiplicity = 1

 SCF Done:  E(RHF) =  -341.711916800     A.U. after   14 cycles
 E2 =    -0.1023194720D+01 EUMP2 =    -0.34273511151991D+03
 SCF Done:  E(RHF) =  -341.713026425     A.U. after   13 cycles
 E2 =    -0.1025134569D+01 EUMP2 =    -0.34273816099351D+03
 SCF Done:  E(RHF) =  -341.712248410     A.U. after   13 cycles
 E2 =    -0.1025406962D+01 EUMP2 =    -0.34273765537137D+03
 SCF Done:  E(RHF) =  -341.714579804     A.U. after   13 cycles
 E2 =    -0.1024210311D+01 EUMP2 =    -0.34273879011484D+03
 SCF Done:  E(RHF) =  -341.714711112     A.U. after   12 cycles
 E2 =    -0.1024147640D+01 EUMP2 =    -0.34273885875239D+03
 SCF Done:  E(RHF) =  -341.715013555     A.U. after   13 cycles
 E2 =    -0.1023888868D+01 EUMP2 =    -0.34273890242328D+03
 SCF Done:  E(RHF) =  -341.715250426     A.U. after   12 cycles
 E2 =    -0.1023703786D+01 EUMP2 =    -0.34273895421206D+03
 SCF Done:  E(RHF) =  -341.715190154     A.U. after   11 cycles
 E2 =    -0.1023785674D+01 EUMP2 =    -0.34273897582837D+03
 SCF Done:  E(RHF) =  -341.714992675     A.U. after   11 cycles
 E2 =    -0.1023999210D+01 EUMP2 =    -0.34273899188552D+03
 SCF Done:  E(RHF) =  -341.715019336     A.U. after   11 cycles
 E2 =    -0.1023998313D+01 EUMP2 =    -0.34273901764903D+03
 E2 =    -0.1024058986D+01 EUMP2 =    -0.34273902909765D+03
 E2 =    -0.1024137136D+01 EUMP2 =    -0.34273903347322D+03
 E2 =    -0.1024160965D+01 EUMP2 =    -0.34273905369821D+03
 E2 =    -0.1024248740D+01 EUMP2 =    -0.34273906659675D+03
 E2 =    -0.1024191750D+01 EUMP2 =    -0.34273906967549D+03
 E2 =    -0.1024207912D+01 EUMP2 =    -0.34273907058223D+03
 E2 =    -0.1024218178D+01 EUMP2 =    -0.34273907066210D+03
 Optimization completed.
    -- Stationary point found.
 Normal termination of Gaussian 16 at Sat Mar 22 17:00:14 2025.

 ----------------------------------------------------------------------
 #N Geom=AllCheck Guess=TCheck SCRF=Check GenChk RMP2(FC)/Aug-CC-pVDZ F
 req
 ----------------------------------------------------------------------

 Structure from the checkpoint file:  "/scr/Gau-49841.chk"
 ----
 blah
 ----
 Charge =  0 Multiplicity = 1

                         Standard orientation:
 ---------------------------------------------------------------------
 Center     Atomic      Atomic             Coordinates (Angstroms)
 Number     Number       Type             X           Y           Z
 ---------------------------------------------------------------------
      1          6           0       -0.193891    0.120192   -0.000674
      2          6           0        1.106768    0.519209    0.000181
      3          1           0       -0.451268   -0.947401   -0.001608
      4          8           0       -1.229092    0.987933   -0.000421
      5          6           0        2.148305   -0.504856   -0.000173
      6          1           0       -2.064739    0.477582   -0.001206
      7          8           0        3.362399   -0.281790    0.000510
      8          1           0        1.383427    1.576486    0.001105
      9          1           0        1.772824   -1.559244   -0.001166
     10          8           0       -3.489477   -0.605216    0.000268
     11          1           0       -4.076661   -0.579098    0.767729
     12          1           0       -4.081313   -0.583012   -0.763715
 ---------------------------------------------------------------------

 E2 =    -0.1024218179D+01 EUMP2 =    -0.34273907066305D+03
 E2 =    -0.1024218179D+01 EUMP2 =    -0.34273907066305D+03
 E2 =    -0.1024217765D+01 EUMP2 =    -0.34273907063944D+03
 SCF Done:  E(RHF) =  -341.714612165     A.U. after   10 cycles
 E2 =    -0.1024391573D+01 EUMP2 =    -0.34273900373843D+03
 E2 =    -0.1024391573D+01 EUMP2 =    -0.34273900373843D+03
 SCF Done:  E(RHF) =  -341.714954807     A.U. after   10 cycles
 E2 =    -0.1024046162D+01 EUMP2 =    -0.34273900096956D+03
 E2 =    -0.1024046162D+01 EUMP2 =    -0.34273900096956D+03
 SCF Done:  E(RHF) =  -341.714946211     A.U. after    9 cycles
 E2 =    -0.1024051796D+01 EUMP2 =    -0.34273899800702D+03
 E2 =    -0.1024051796D+01 EUMP2 =    -0.34273899800702D+03
 SCF Done:  E(RHF) =  -341.714616105     A.U. after    9 cycles
 E2 =    -0.1024384941D+01 EUMP2 =    -0.34273900104621D+03
 E2 =    -0.1024384941D+01 EUMP2 =    -0.34273900104621D+03
 SCF Done:  E(RHF) =  -341.714202729     A.U. after   10 cycles
 E2 =    -0.1024783936D+01 EUMP2 =    -0.34273898666514D+03
 E2 =    -0.1024783936D+01 EUMP2 =    -0.34273898666514D+03
 SCF Done:  E(RHF) =  -341.715327741     A.U. after   10 cycles
 E2 =    -0.1023654144D+01 EUMP2 =    -0.34273898188482D+03
 E2 =    -0.1023654144D+01 EUMP2 =    -0.34273898188482D+03
 SCF Done:  E(RHF) =  -341.714153773     A.U. after    9 cycles
 E2 =    -0.1024821230D+01 EUMP2 =    -0.34273897500313D+03
 E2 =    -0.1024821230D+01 EUMP2 =    -0.34273897500313D+03
 SCF Done:  E(RHF) =  -341.715353684     A.U. after    9 cycles
 E2 =    -0.1023618055D+01 EUMP2 =    -0.34273897173839D+03
 E2 =    -0.1023618055D+01 EUMP2 =    -0.34273897173839D+03
 SCF Done:  E(RHF) =  -341.714749751     A.U. after    9 cycles
 E2 =    -0.1024216940D+01 EUMP2 =    -0.34273896669095D+03
 E2 =    -0.1024216940D+01 EUMP2 =    -0.34273896669095D+03
 SCF Done:  E(RHF) =  -341.714748748     A.U. after    9 cycles
 E2 =    -0.1024218052D+01 EUMP2 =    -0.34273896680035D+03
 E2 =    -0.1024218052D+01 EUMP2 =    -0.34273896680035D+03

 Alpha  occ. eigenvalues --  -20.63657 -20.60903 -20.53925 -11.33863 -11.32928
 Alpha  occ. eigenvalues --  -11.23307  -1.42328  -1.40915  -1.35633  -1.06278
 Alpha  occ. eigenvalues --   -0.86575  -0.78295  -0.77315  -0.74360  -0.67046
 Alpha  occ. eigenvalues --   -0.64995  -0.60228  -0.59081  -0.58803  -0.56998
 Alpha  occ. eigenvalues --   -0.53107  -0.51104  -0.40885  -0.34940
 Alpha virt. eigenvalues --    0.01135   0.04053   0.04724   0.05125   0.06925
 Alpha virt. eigenvalues --    0.07276   0.10233   0.10707   0.12803   0.13301
 Alpha virt. eigenvalues --    0.14300   0.14756   0.15468   0.15743   0.17024

 Mulliken charges:
               1
     1  C    0.821379
     2  C    0.622050
     3  H   -0.472979
     4  O   -0.592161
     5  C    0.537217
     6  H    0.272536
     7  O   -0.570264
     8  H   -0.421922
     9  H   -0.170256
    10  O   -0.354082
    11  H    0.155016
    12  H    0.173466
 Sum of Mulliken charges =  -0.00000

 Dipole moment (field-independent basis, Debye):
    X=             -8.2882    Y=             -1.4478    Z=             -0.0136  Tot=              8.4137
 Quadrupole moment (field-independent basis, Debye-Ang):
   XX=            -31.0072   YY=            -37.9994   ZZ=            -35.7317
   XY=              4.1166   XZ=              0.0667   YZ=              0.0167

  Exact polarizability:      94.437      -2.631      51.611       0.098       0.011      40.114
 Approx polarizability:      65.047       1.017      42.197       0.072       0.007      38.412

                      1                      2                      3
                      A                      A                      A
 Frequencies --     45.9568                66.6628               109.6649
 Red. masses --      4.8560                 1.9042                 1.1106
 Frc consts  --      0.0060                 0.0050                 0.0079
 IR Inten    --      2.4139                 0.1749                41.1546

                      4                      5                      6
                      A                      A                      A
 Frequencies --    153.5162               181.4811               229.1570
 Red. masses --      4.6847                 5.6875                 1.7528
 Frc consts  --      0.0650                 0.1104                 0.0542
 IR Inten    --      5.0922                 7.5440               131.2223

                      7                      8                      9
                      A                      A                      A
 Frequencies --    269.6247               271.9915               358.2857
 Red. masses --      1.2076                 2.2174                 2.4605
 Frc consts  --      0.0517                 0.0966                 0.1861
 IR Inten    --      8.2783                91.0799                 0.1876

                     10                     11                     12
                      A                      A                      A
 Frequencies --    499.4724               564.2028               824.2086
 Red. masses --      8.5890                 3.4212                 1.2194
 Frc consts  --      1.2625                 0.6417                 0.4880
 IR Inten    --      4.6681                25.5822                99.6040

                     13                     14                     15
                      A                      A                      A
 Frequencies --    860.7103               963.4089              1007.8836
 Red. masses --      1.3240                 1.2458                 1.5371
 Frc consts  --      0.5779                 0.6813                 0.9200
 IR Inten    --     21.1545                27.4646                 4.6252

                     16                     17                     18
                      A                      A                      A
 Frequencies --   1164.6851              1195.3939              1231.9659
 Red. masses --      1.8743                 2.0998                 3.1041
 Frc consts  --      1.4980                 1.7678                 2.7758
 IR Inten    --    126.7761                69.6771                81.7827

                     19                     20                     21
                      A                      A                      A
 Frequencies --   1334.7755              1396.8844              1437.8147
 Red. masses --      1.3002                 1.2158                 1.3759
 Frc consts  --      1.3648                 1.3977                 1.6759
 IR Inten    --     31.5625               120.9905                81.3678

                     22                     23                     24
                      A                      A                      A
 Frequencies --   1627.0854              1695.8825              1722.5953
 Red. masses --      1.0878                 7.3303                 4.6866
 Frc consts  --      1.6967                12.4212                 8.1935
 IR Inten    --     47.8648                41.2446               557.5687

                     25                     26                     27
                      A                      A                      A
 Frequencies --   2928.2663              3179.0797              3244.2081
 Red. masses --      1.0827                 1.0914                 1.0939
 Frc consts  --      5.4697                 6.4991                 6.7836
 IR Inten    --     97.9466                 9.7831                 1.1718

                     28                     29                     30
                      A                      A                      A
 Frequencies --   3574.8466              3794.1689              3921.4050
 Red. masses --      1.0681                 1.0453                 1.0817
 Frc consts  --      8.0421                 8.8663                 9.8007
 IR Inten    --   1167.6232                15.0746               106.8709

 - Thermochemistry -
 -------------------
 Temperature   298.150 Kelvin.  Pressure   1.00000 Atm.
 Atom     1 has atomic number  6 and mass  12.00000

 Molecular mass:    90.03169 amu.
 Principal axes and moments of inertia in atomic units:
                           1         2         3
     Eigenvalues --   132.491911835.590141959.64103
           X            0.99997   0.00776  -0.00002
           Y           -0.00776   0.99997   0.00014
           Z            0.00002  -0.00014   1.00000
 This molecule is an asymmetric top.
 Rotational symmetry number  1.
 Rotational temperatures (Kelvin)      0.65373     0.04719     0.04420
 Rotational constants (GHZ):          13.62152     0.98319     0.92095
 Zero-point vibrational energy     238387.5 (Joules/Mol)
                                   56.97599 (Kcal/Mol)
 Warning -- explicit consideration of  11 degrees of freedom as
           vibrations may cause significant error
 Vibrational temperatures:     66.12    95.91   157.78   220.88   261.11
          (Kelvin)            329.71   387.93   391.34   515.49   718.63
                              811.76  1185.85  1238.37  1386.13  1450.12
                             1675.72  1719.91  1772.52  1920.44  2009.81
                             2068.69  2341.01  2440.00  2478.43  4213.12
                             4573.99  4667.69  5143.41  5458.96  5642.03

 Zero-point correction=                           0.090797 (Hartree/Particle)
 Thermal correction to Energy=                    0.099701
 Thermal correction to Enthalpy=                  0.100645
 Thermal correction to Gibbs Free Energy=         0.056632
 Sum of electronic and zero-point Energies=           -342.648274
 Sum of electronic and thermal Energies=              -342.639370
 Sum of electronic and thermal Enthalpies=            -342.638425
 Sum of electronic and thermal Free Energies=         -342.682439

                     E (Thermal)             CV                S
                      KCal/Mol        Cal/Mol-Kelvin    Cal/Mol-Kelvin
 Total                   62.563             27.813             92.635
 Electronic               0.000              0.000              0.000
 Translational            0.889              2.981             39.405
 Rotational               0.889              2.981             27.657
 Vibrational             60.786             21.851             25.573
 Vibration     1          0.595              1.979              4.984
 Vibration     2          0.598              1.970              4.250
 Vibration     3          0.606              1.941              3.275
 Vibration     4          0.619              1.899              2.628
 Vibration     5          0.630              1.865              2.313
 Vibration     6          0.652              1.797              1.886
 Vibration     7          0.674              1.729              1.599
 Vibration     8          0.675              1.725              1.584
 Vibration     9          0.733              1.558              1.130
 Vibration    10          0.855              1.251              0.659
 Vibration    11          0.920              1.109              0.516

 ## DEPERTURBED TRANSITIONS MOMENTS ##

 Electric dipole : Fundamental Bands
 ------------------------------------------------------------------------

 ## AFTER VARIATIONAL CORRECTION

 Electric dipole : Fundamental Bands
 ------------------------------------------------------------------------

                           ! Non-Optimized Parameters !
 Normal termination of Gaussian 16 at Sat Mar 22 21:04:41 2025.
