 Gaussian 16, Revision C.01,
 Gaussian 16:  EM64L-G16RevC.01  3-Jul-2019

 ----------------------------------------------
 # MP2/aug-cc-pVDZ opt freq=(vibrot,anharmonic)
 ----------------------------------------------

 ----
 blah
 ----
 Symbolic Z-matrix:
 Charge =  0 Multiplicity = 1

 SCF Done:  E(RHF) =  -321.878306166     A.U. after   14 cycles
 E2 =    -0.1004788513D+01 EUMP2 =    -0.32288309467924D+03
 SCF Done:  E(RHF) =  -321.878079235     A.U. after   13 cycles
 E2 =    -0.1007514194D+01 EUMP2 =    -0.32288559342862D+03
 SCF Done:  E(RHF) =  -321.875141192     A.U. after   15 cycles
 E2 =    -0.1008982292D+01 EUMP2 =    -0.32288412348455D+03
 SCF Done:  E(RHF) =  -321.879466840     A.U. after   11 cycles
 E2 =    -0.1006839900D+01 EUMP2 =    -0.32288630673951D+03
 SCF Done:  E(RHF) =  -321.879708491     A.U. after   11 cycles
 E2 =    -0.1006617237D+01 EUMP2 =    -0.32288632572803D+03
 SCF Done:  E(RHF) =  -321.879865579     A.U. after   12 cycles
 E2 =    -0.1006397731D+01 EUMP2 =    -0.32288626331016D+03
 SCF Done:  E(RHF) =  -321.880134392     A.U. after   12 cycles
 E2 =    -0.1006177380D+01 EUMP2 =    -0.32288631177176D+03
 SCF Done:  E(RHF) =  -321.879886549     A.U. after   11 cycles
 E2 =    -0.1006441738D+01 EUMP2 =    -0.32288632828612D+03
 SCF Done:  E(RHF) =  -321.879832562     A.U. after   11 cycles
 E2 =    -0.1006497940D+01 EUMP2 =    -0.32288633050252D+03
 SCF Done:  E(RHF) =  -321.879772871     A.U. after   11 cycles
 E2 =    -0.1006557487D+01 EUMP2 =    -0.32288633035849D+03
 E2 =    -0.1006521737D+01 EUMP2 =    -0.32288633185430D+03
 E2 =    -0.1006517708D+01 EUMP2 =    -0.32288633239210D+03
 E2 =    -0.1006514876D+01 EUMP2 =    -0.32288633284048D+03
 E2 =    -0.1006516676D+01 EUMP2 =    -0.32288633291387D+03
 E2 =    -0.1006519680D+01 EUMP2 =    -0.32288633294785D+03
 E2 =    -0.1006522499D+01 EUMP2 =    -0.32288633296023D+03
 E2 =    -0.1006527070D+01 EUMP2 =    -0.32288633296218D+03
 E2 =    -0.1006531102D+01 EUMP2 =    -0.32288633297489D+03
 E2 =    -0.1006534079D+01 EUMP2 =    -0.32288633298560D+03
 E2 =    -0.1006534267D+01 EUMP2 =    -0.32288633300081D+03
 Optimization completed.
    -- Stationary point found.
 Normal termination of Gaussian 16 at Sat Mar 22 16:14:42 2025.

 ----------------------------------------------------------------------
 #N Geom=AllCheck Guess=TCheck SCRF=Check GenChk RMP2(FC)/Aug-CC-pVDZ F
 req
 ----------------------------------------------------------------------

 Structure from the checkpoint file:  "/scr/Gau-10326.chk"
 ----
 blah
 ----
 Charge =  0 Multiplicity = 1

                         Standard orientation:
 ---------------------------------------------------------------------
 Center     Atomic      Atomic             Coordinates (Angstroms)
 Number     Number       Type             X           Y           Z
 ---------------------------------------------------------------------
      1          6           0       -0.037113   -0.343699    0.000000
      2          6           0        1.224243   -0.858227   -0.000005
      3          1           0       -0.172374    0.745921    0.000018
      4          8           0       -1.147328   -1.099590    0.000006
      5          6           0        2.379659    0.046345    0.000001
      6          1           0       -1.932869   -0.487334    0.000016
      7          8           0        2.327008    1.282870    0.000000
      8          1           0        1.388026   -1.938741   -0.000012
      9          1           0        3.373832   -0.459520   -0.000002
     10          7           0       -3.259155    0.686919    0.000001
     11          1           0       -4.157493    0.203051   -0.000415
     12          1           0       -3.261851    1.297477    0.817683
     13          1           0       -3.261360    1.297961   -0.817322
 ---------------------------------------------------------------------

 SCF Done:  E(RHF) =  -321.879220688     A.U. after   10 cycles
 E2 =    -0.1007043424D+01 EUMP2 =    -0.32288626411286D+03
 E2 =    -0.1007043424D+01 EUMP2 =    -0.32288626411285D+03
 SCF Done:  E(RHF) =  -321.880253867     A.U. after   10 cycles
 E2 =    -0.1006006833D+01 EUMP2 =    -0.32288626069955D+03
 E2 =    -0.1006006833D+01 EUMP2 =    -0.32288626069955D+03
 SCF Done:  E(RHF) =  -321.879894122     A.U. after    9 cycles
 E2 =    -0.1006366647D+01 EUMP2 =    -0.32288626076823D+03
 E2 =    -0.1006366647D+01 EUMP2 =    -0.32288626076823D+03
 SCF Done:  E(RHF) =  -321.879580345     A.U. after    9 cycles
 E2 =    -0.1006683297D+01 EUMP2 =    -0.32288626364208D+03
 E2 =    -0.1006683297D+01 EUMP2 =    -0.32288626364208D+03
 SCF Done:  E(RHF) =  -321.880156359     A.U. after    8 cycles
 E2 =    -0.1006093922D+01 EUMP2 =    -0.32288625028138D+03
 E2 =    -0.1006093922D+01 EUMP2 =    -0.32288625028138D+03
 SCF Done:  E(RHF) =  -321.879294085     A.U. after    8 cycles
 E2 =    -0.1006958378D+01 EUMP2 =    -0.32288625246302D+03
 E2 =    -0.1006958378D+01 EUMP2 =    -0.32288625246302D+03
 SCF Done:  E(RHF) =  -321.879719421     A.U. after    8 cycles
 E2 =    -0.1006525708D+01 EUMP2 =    -0.32288624512874D+03
 E2 =    -0.1006525708D+01 EUMP2 =    -0.32288624512874D+03
 SCF Done:  E(RHF) =  -321.879720132     A.U. after    8 cycles
 E2 =    -0.1006523311D+01 EUMP2 =    -0.32288624344256D+03
 E2 =    -0.1006523311D+01 EUMP2 =    -0.32288624344256D+03
 SCF Done:  E(RHF) =  -321.879719791     A.U. after    8 cycles
 E2 =    -0.1006524491D+01 EUMP2 =    -0.32288624428224D+03
 E2 =    -0.1006524491D+01 EUMP2 =    -0.32288624428224D+03
 SCF Done:  E(RHF) =  -321.879719748     A.U. after    8 cycles
 E2 =    -0.1006524490D+01 EUMP2 =    -0.32288624423852D+03
 E2 =    -0.1006524490D+01 EUMP2 =    -0.32288624423852D+03

 Alpha  occ. eigenvalues --  -20.59465 -20.53401 -15.60638 -11.32879 -11.32619
 Alpha  occ. eigenvalues --  -11.21947  -1.40658  -1.35208  -1.19693  -1.04360
 Alpha  occ. eigenvalues --   -0.87079  -0.75372  -0.74130  -0.67972  -0.67611
 Alpha  occ. eigenvalues --   -0.64494  -0.61909  -0.58462  -0.57472  -0.52527
 Alpha  occ. eigenvalues --   -0.50752  -0.48321  -0.40461  -0.33722
 Alpha virt. eigenvalues --    0.01905   0.04484   0.04704   0.04763   0.06073
 Alpha virt. eigenvalues --    0.07261   0.08758   0.08775   0.12038   0.12814
 Alpha virt. eigenvalues --    0.13785   0.14963   0.15020   0.15720   0.16649

 Mulliken charges:
               1
     1  C    0.777500
     2  C    0.662687
     3  H   -0.439696
     4  O   -0.637897
     5  C    0.545952
     6  H    0.345862
     7  O   -0.575075
     8  H   -0.471540
     9  H   -0.152269
    10  N   -0.195402
    11  H    0.028892
    12  H    0.043886
    13  H    0.067101
 Sum of Mulliken charges =   0.00000

 Dipole moment (field-independent basis, Debye):
    X=             -5.5103    Y=              0.2108    Z=             -0.0067  Tot=              5.5143
 Quadrupole moment (field-independent basis, Debye-Ang):
   XX=            -24.2445   YY=            -40.8584   ZZ=            -37.6675
   XY=            -12.3736   XZ=              0.0210   YZ=             -0.0212

  Exact polarizability:      93.886       1.264      62.026       0.020      -0.076      43.099
 Approx polarizability:      60.204      -0.065      52.369       0.002      -0.068      41.255

                      1                      2                      3
                      A                      A                      A
 Frequencies --     25.6696                52.4450                74.5338
 Red. masses --      1.0302                 3.8991                 3.0149
 Frc consts  --      0.0004                 0.0063                 0.0099
 IR Inten    --      0.0378                 7.0727                13.4232

                      4                      5                      6
                      A                      A                      A
 Frequencies --    202.4120               205.3533               240.1834
 Red. masses --      1.8066                 4.5164                 4.1981
 Frc consts  --      0.0436                 0.1122                 0.1427
 IR Inten    --      5.1273                14.1807                13.1160

                      7                      8                      9
                      A                      A                      A
 Frequencies --    254.8849               318.3765               355.0510
 Red. masses --      3.5289                 1.2065                 1.3129
 Frc consts  --      0.1351                 0.0721                 0.0975
 IR Inten    --      0.0949                19.2212                28.1172

                     10                     11                     12
                      A                      A                      A
 Frequencies --    467.5329               744.2957               814.9148
 Red. masses --      4.8934                 6.1003                 1.4951
 Frc consts  --      0.6302                 1.9911                 0.5850
 IR Inten    --      3.4071                80.3998                35.2442

                     13                     14                     15
                      A                      A                      A
 Frequencies --    969.3437               995.8203              1008.0196
 Red. masses --      1.1914                 1.3734                 2.1459
 Frc consts  --      0.6596                 0.8024                 1.2847
 IR Inten    --     86.2961                 0.0358                57.4515

                     16                     17                     18
                      A                      A                      A
 Frequencies --   1017.3271              1153.4423              1216.5346
 Red. masses --      1.3108                 1.1867                 1.8719
 Frc consts  --      0.7993                 0.9302                 1.6322
 IR Inten    --      7.0459               155.2125                59.2674

                     19                     20                     21
                      A                      A                      A
 Frequencies --   1292.1704              1343.4356              1416.3511
 Red. masses --      1.8089                 1.7413                 1.2468
 Frc consts  --      1.7795                 1.8516                 1.4737
 IR Inten    --    112.2389                 3.7089                 5.6900

                     22                     23                     24
                      A                      A                      A
 Frequencies --   1507.9090              1646.9795              1647.7805
 Red. masses --      1.2814                 1.1021                 1.0608
 Frc consts  --      1.7166                 1.7614                 1.6970
 IR Inten    --    245.6723                 8.9227                18.5944

                     25                     26                     27
                      A                      A                      A
 Frequencies --   1672.9218              1734.6553              2969.8730
 Red. masses --      6.0429                 3.9876                 1.0840
 Frc consts  --      9.9643                 7.0696                 5.6333
 IR Inten    --    463.4847               201.2976               175.5181

                     28                     29                     30
                      A                      A                      A
 Frequencies --   3180.9397              3232.4070              3237.2648
 Red. masses --      1.0908                 1.0721                 1.0932
 Frc consts  --      6.5030                 6.5998                 6.7499
 IR Inten    --     72.4781              1927.5136                 5.2662

                     31                     32                     33
                      A                      A                      A
 Frequencies --   3476.2637              3623.8601              3624.2933
 Red. masses --      1.0284                 1.0887                 1.0889
 Frc consts  --      7.3223                 8.4236                 8.4273
 IR Inten    --      1.1394                18.4013                18.8813

 - Thermochemistry -
 -------------------
 Temperature   298.150 Kelvin.  Pressure   1.00000 Atm.
 Atom     1 has atomic number  6 and mass  12.00000

 Molecular mass:    89.04768 amu.
 Principal axes and moments of inertia in atomic units:
                           1         2         3
     Eigenvalues --   255.837881426.867511673.08437
           X            0.99925  -0.03866   0.00000
           Y            0.03866   0.99925   0.00000
           Z           -0.00000  -0.00000   1.00000
 This molecule is an asymmetric top.
 Rotational symmetry number  1.
 Rotational temperatures (Kelvin)      0.33855     0.06070     0.05177
 Rotational constants (GHZ):           7.05424     1.26483     1.07869
 Zero-point vibrational energy     273485.7 (Joules/Mol)
                                   65.36466 (Kcal/Mol)
 Warning -- explicit consideration of  10 degrees of freedom as
           vibrations may cause significant error
 Vibrational temperatures:     36.93    75.46   107.24   291.23   295.46
          (Kelvin)            345.57   366.72   458.07   510.84   672.68
                             1070.88  1172.48  1394.67  1432.76  1450.32
                             1463.71  1659.55  1750.32  1859.15  1932.90
                             2037.81  2169.54  2369.64  2370.79  2406.96
                             2495.78  4272.98  4576.66  4650.71  4657.70
                             5001.57  5213.93  5214.55

 Zero-point correction=                           0.104165 (Hartree/Particle)
 Thermal correction to Energy=                    0.112988
 Thermal correction to Enthalpy=                  0.113933
 Thermal correction to Gibbs Free Energy=         0.069227
 Sum of electronic and zero-point Energies=           -322.782168
 Sum of electronic and thermal Energies=              -322.773345
 Sum of electronic and thermal Enthalpies=            -322.772400
 Sum of electronic and thermal Free Energies=         -322.817106

                     E (Thermal)             CV                S
                      KCal/Mol        Cal/Mol-Kelvin    Cal/Mol-Kelvin
 Total                   70.901             27.557             94.090
 Electronic               0.000              0.000              0.000
 Translational            0.889              2.981             39.372
 Rotational               0.889              2.981             27.904
 Vibrational             69.124             21.596             26.814
 Vibration     1          0.593              1.985              6.139
 Vibration     2          0.596              1.977              4.723
 Vibration     3          0.599              1.966              4.030
 Vibration     4          0.639              1.836              2.111
 Vibration     5          0.640              1.832              2.085
 Vibration     6          0.657              1.779              1.802
 Vibration     7          0.665              1.755              1.697
 Vibration     8          0.705              1.638              1.318
 Vibration     9          0.731              1.565              1.144
 Vibration    10          0.825              1.322              0.744

 ## DEPERTURBED TRANSITIONS MOMENTS ##

 Electric dipole : Fundamental Bands
 ------------------------------------------------------------------------

 ## AFTER VARIATIONAL CORRECTION

 Electric dipole : Fundamental Bands
 ------------------------------------------------------------------------

 Optimization completed.
    -- Stationary point found.
 Normal termination of Gaussian 16 at Sat Mar 22 21:50:58 2025.
