 Gaussian 16, Revision C.01,
 Gaussian 16:  EM64L-G16RevC.01  3-Jul-2019

 ----------------------------------------------
 # MP2/aug-cc-pVDZ opt freq=(vibrot,anharmonic)
 ----------------------------------------------

 ----
 blah
 ----
 Symbolic Z-matrix:
 Charge =  0 Multiplicity = 1

 SCF Done:  E(RHF) =  -341.713853951     A.U. after   14 cycles
 E2 =    -0.1023150749D+01 EUMP2 =    -0.34273700469968D+03
 SCF Done:  E(RHF) =  -341.713988666     A.U. after   13 cycles
 E2 =    -0.1025705682D+01 EUMP2 =    -0.34273969434721D+03
 SCF Done:  E(RHF) =  -341.711015427     A.U. after   15 cycles
 E2 =    -0.1026554197D+01 EUMP2 =    -0.34273756962350D+03
 SCF Done:  E(RHF) =  -341.716051879     A.U. after   12 cycles
 E2 =    -0.1024433943D+01 EUMP2 =    -0.34274048582106D+03
 SCF Done:  E(RHF) =  -341.716358529     A.U. after   12 cycles
 E2 =    -0.1024264763D+01 EUMP2 =    -0.34274062329266D+03
 SCF Done:  E(RHF) =  -341.716411131     A.U. after   12 cycles
 E2 =    -0.1024243091D+01 EUMP2 =    -0.34274065422260D+03
 SCF Done:  E(RHF) =  -341.716443770     A.U. after   13 cycles
 E2 =    -0.1024009916D+01 EUMP2 =    -0.34274045368609D+03
 SCF Done:  E(RHF) =  -341.716531675     A.U. after   11 cycles
 E2 =    -0.1024182262D+01 EUMP2 =    -0.34274071393663D+03
 SCF Done:  E(RHF) =  -341.716607481     A.U. after   11 cycles
 E2 =    -0.1024127170D+01 EUMP2 =    -0.34274073465099D+03
 SCF Done:  E(RHF) =  -341.716596659     A.U. after   12 cycles
 E2 =    -0.1024155646D+01 EUMP2 =    -0.34274075230529D+03
 E2 =    -0.1024222409D+01 EUMP2 =    -0.34274075860270D+03
 E2 =    -0.1024246335D+01 EUMP2 =    -0.34274078482338D+03
 E2 =    -0.1024451821D+01 EUMP2 =    -0.34274081549001D+03
 E2 =    -0.1024456955D+01 EUMP2 =    -0.34274082091112D+03
 E2 =    -0.1024550143D+01 EUMP2 =    -0.34274082124266D+03
 E2 =    -0.1024461138D+01 EUMP2 =    -0.34274082308129D+03
 E2 =    -0.1024479411D+01 EUMP2 =    -0.34274082458318D+03
 E2 =    -0.1024498035D+01 EUMP2 =    -0.34274082500857D+03
 Optimization completed.
    -- Stationary point found.
 Normal termination of Gaussian 16 at Sat Mar 22 19:21:42 2025.

 ----------------------------------------------------------------------
 #N Geom=AllCheck Guess=TCheck SCRF=Check GenChk RMP2(FC)/Aug-CC-pVDZ F
 req
 ----------------------------------------------------------------------

 Structure from the checkpoint file:  "/scr/Gau-45054.chk"
 ----
 blah
 ----
 Charge =  0 Multiplicity = 1

                         Standard orientation:
 ---------------------------------------------------------------------
 Center     Atomic      Atomic             Coordinates (Angstroms)
 Number     Number       Type             X           Y           Z
 ---------------------------------------------------------------------
      1          6           0        0.088806    1.156887    0.000114
      2          6           0       -0.599352   -0.020302   -0.000328
      3          1           0       -0.438222    2.116975    0.000844
      4          8           0        1.428040    1.318317   -0.000246
      5          6           0       -2.059841    0.024745    0.000209
      6          1           0        1.862956    0.437567   -0.000827
      7          8           0       -2.796686   -0.965765   -0.000079
      8          1           0       -0.093876   -0.989955   -0.001100
      9          1           0       -2.501038    1.052530    0.000908
     10          8           0        2.650506   -1.184329   -0.000037
     11          1           0        3.167130   -1.464232    0.767358
     12          1           0        3.170496   -1.466655   -0.764253
 ---------------------------------------------------------------------

 E2 =    -0.1024498043D+01 EUMP2 =    -0.34274082501673D+03
 E2 =    -0.1024498043D+01 EUMP2 =    -0.34274082501673D+03
 SCF Done:  E(RHF) =  -341.716057657     A.U. after   10 cycles
 E2 =    -0.1024698783D+01 EUMP2 =    -0.34274075643993D+03
 E2 =    -0.1024698783D+01 EUMP2 =    -0.34274075643993D+03
 SCF Done:  E(RHF) =  -341.716455197     A.U. after   10 cycles
 E2 =    -0.1024298438D+01 EUMP2 =    -0.34274075363438D+03
 E2 =    -0.1024298438D+01 EUMP2 =    -0.34274075363438D+03
 SCF Done:  E(RHF) =  -341.716425596     A.U. after    9 cycles
 E2 =    -0.1024327244D+01 EUMP2 =    -0.34274075283988D+03
 E2 =    -0.1024327244D+01 EUMP2 =    -0.34274075283988D+03
 SCF Done:  E(RHF) =  -341.716086302     A.U. after    9 cycles
 E2 =    -0.1024669344D+01 EUMP2 =    -0.34274075564554D+03
 E2 =    -0.1024669344D+01 EUMP2 =    -0.34274075564554D+03
 SCF Done:  E(RHF) =  -341.716784054     A.U. after   10 cycles
 E2 =    -0.1023954257D+01 EUMP2 =    -0.34274073831126D+03
 E2 =    -0.1023954257D+01 EUMP2 =    -0.34274073831126D+03
 SCF Done:  E(RHF) =  -341.715699418     A.U. after   10 cycles
 E2 =    -0.1025043365D+01 EUMP2 =    -0.34274074278323D+03
 E2 =    -0.1025043365D+01 EUMP2 =    -0.34274074278323D+03
 SCF Done:  E(RHF) =  -341.715617207     A.U. after    9 cycles
 E2 =    -0.1025112193D+01 EUMP2 =    -0.34274072940001D+03
 E2 =    -0.1025112193D+01 EUMP2 =    -0.34274072940001D+03
 SCF Done:  E(RHF) =  -341.716839181     A.U. after    9 cycles
 E2 =    -0.1023886899D+01 EUMP2 =    -0.34274072608012D+03
 E2 =    -0.1023886899D+01 EUMP2 =    -0.34274072608012D+03
 SCF Done:  E(RHF) =  -341.716223337     A.U. after    9 cycles
 E2 =    -0.1024497692D+01 EUMP2 =    -0.34274072102926D+03
 E2 =    -0.1024497692D+01 EUMP2 =    -0.34274072102926D+03
 SCF Done:  E(RHF) =  -341.716223932     A.U. after    9 cycles
 E2 =    -0.1024497030D+01 EUMP2 =    -0.34274072096227D+03
 E2 =    -0.1024497030D+01 EUMP2 =    -0.34274072096227D+03

 Alpha  occ. eigenvalues --  -20.62883 -20.61069 -20.54129 -11.34144 -11.33147
 Alpha  occ. eigenvalues --  -11.23590  -1.42227  -1.40361  -1.35849  -1.06186
 Alpha  occ. eigenvalues --   -0.87532  -0.79979  -0.76582  -0.71861  -0.67113
 Alpha  occ. eigenvalues --   -0.64810  -0.60706  -0.58948  -0.58651  -0.56225
 Alpha  occ. eigenvalues --   -0.53849  -0.51342  -0.41057  -0.35261
 Alpha virt. eigenvalues --    0.01728   0.04265   0.04552   0.05745   0.06442
 Alpha virt. eigenvalues --    0.07291   0.10021   0.10533   0.11990   0.13739
 Alpha virt. eigenvalues --    0.14660   0.14731   0.15168   0.15467   0.16744

 Mulliken charges:
               1
     1  C    0.622924
     2  C    0.809969
     3  H   -0.313625
     4  O   -0.501685
     5  C    0.457948
     6  H    0.210993
     7  O   -0.559828
     8  H   -0.511931
     9  H   -0.176865
    10  O   -0.401523
    11  H    0.190993
    12  H    0.172628
 Sum of Mulliken charges =  -0.00000

 Dipole moment (field-independent basis, Debye):
    X=              5.7740    Y=             -0.1376    Z=              0.0203  Tot=              5.7757
 Quadrupole moment (field-independent basis, Debye-Ang):
   XX=            -34.0868   YY=            -36.5604   ZZ=            -35.7394
   XY=            -15.7742   XZ=              0.0713   YZ=             -0.0323

  Exact polarizability:      79.846      11.613      62.604       0.068      -0.031      39.921
 Approx polarizability:      53.810       9.198      52.993       0.051      -0.022      38.424

                      1                      2                      3
                      A                      A                      A
 Frequencies --     60.2320                79.1858               118.8219
 Red. masses --      4.9166                 1.1877                 1.5400
 Frc consts  --      0.0105                 0.0044                 0.0128
 IR Inten    --      6.9346                34.5954                 0.0022

                      4                      5                      6
                      A                      A                      A
 Frequencies --    153.1349               178.2663               215.3485
 Red. masses --      4.6158                 4.8203                 1.3903
 Frc consts  --      0.0638                 0.0903                 0.0380
 IR Inten    --      8.3422                21.7710               163.1639

                      7                      8                      9
                      A                      A                      A
 Frequencies --    264.1330               267.7938               379.5006
 Red. masses --      3.9950                 1.2021                 2.3373
 Frc consts  --      0.1642                 0.0508                 0.1983
 IR Inten    --     34.9935                 5.4740                 5.6608

                     10                     11                     12
                      A                      A                      A
 Frequencies --    496.1131               573.6286               847.1392
 Red. masses --      7.1660                 3.4081                 1.5926
 Frc consts  --      1.0392                 0.6607                 0.6734
 IR Inten    --      0.7706                 7.9837                50.3107

                     13                     14                     15
                      A                      A                      A
 Frequencies --    856.8910               986.8464              1024.9428
 Red. masses --      1.0987                 1.5105                 1.2331
 Frc consts  --      0.4753                 0.8667                 0.7632
 IR Inten    --      5.2127                25.3858                61.5058

                     16                     17                     18
                      A                      A                      A
 Frequencies --   1173.3966              1183.7749              1239.0533
 Red. masses --      2.1353                 2.1157                 2.3263
 Frc consts  --      1.7322                 1.7468                 2.1043
 IR Inten    --    141.1101               218.2598                23.5431

                     19                     20                     21
                      A                      A                      A
 Frequencies --   1335.2029              1400.2185              1455.1637
 Red. masses --      1.3532                 1.2630                 1.3092
 Frc consts  --      1.4214                 1.4589                 1.6334
 IR Inten    --     21.7233                 7.6178                 6.9188

                     22                     23                     24
                      A                      A                      A
 Frequencies --   1627.4733              1677.2925              1707.8989
 Red. masses --      1.0845                 5.6621                 6.8780
 Frc consts  --      1.6924                 9.3852                11.8205
 IR Inten    --     62.4964               119.2013               545.7602

                     25                     26                     27
                      A                      A                      A
 Frequencies --   2936.8844              3217.6447              3235.8547
 Red. masses --      1.0831                 1.0921                 1.0930
 Frc consts  --      5.5043                 6.6617                 6.7427
 IR Inten    --    102.0643                17.0184                 1.2305

                     28                     29                     30
                      A                      A                      A
 Frequencies --   3534.8615              3793.8022              3923.2782
 Red. masses --      1.0672                 1.0453                 1.0818
 Frc consts  --      7.8570                 8.8644                 9.8105
 IR Inten    --    753.0644                17.0858               105.1155

 - Thermochemistry -
 -------------------
 Temperature   298.150 Kelvin.  Pressure   1.00000 Atm.
 Atom     1 has atomic number  6 and mass  12.00000

 Molecular mass:    90.03169 amu.
 Principal axes and moments of inertia in atomic units:
                           1         2         3
     Eigenvalues --   332.162371275.144431598.86404
           X            0.99899  -0.04495   0.00001
           Y            0.04495   0.99899   0.00001
           Z           -0.00001  -0.00001   1.00000
 This molecule is an asymmetric top.
 Rotational symmetry number  1.
 Rotational temperatures (Kelvin)      0.26076     0.06792     0.05417
 Rotational constants (GHZ):           5.43331     1.41532     1.12876
 Zero-point vibrational energy     238916.8 (Joules/Mol)
                                   57.10250 (Kcal/Mol)
 Warning -- explicit consideration of  11 degrees of freedom as
           vibrations may cause significant error
 Vibrational temperatures:     86.66   113.93   170.96   220.33   256.49
          (Kelvin)            309.84   380.03   385.30   546.02   713.80
                              825.32  1218.84  1232.88  1419.85  1474.66
                             1688.26  1703.19  1782.72  1921.06  2014.60
                             2093.66  2341.57  2413.25  2457.29  4225.52
                             4629.47  4655.67  5085.88  5458.44  5644.72

 Zero-point correction=                           0.090999 (Hartree/Particle)
 Thermal correction to Energy=                    0.099833
 Thermal correction to Enthalpy=                  0.100778
 Thermal correction to Gibbs Free Energy=         0.057047
 Sum of electronic and zero-point Energies=           -342.649826
 Sum of electronic and thermal Energies=              -342.640992
 Sum of electronic and thermal Enthalpies=            -342.640047
 Sum of electronic and thermal Free Energies=         -342.683778

                     E (Thermal)             CV                S
                      KCal/Mol        Cal/Mol-Kelvin    Cal/Mol-Kelvin
 Total                   62.646             27.697             92.039
 Electronic               0.000              0.000              0.000
 Translational            0.889              2.981             39.405
 Rotational               0.889              2.981             28.006
 Vibrational             60.869             21.736             24.628
 Vibration     1          0.597              1.973              4.450
 Vibration     2          0.600              1.963              3.911
 Vibration     3          0.609              1.934              3.119
 Vibration     4          0.619              1.899              2.633
 Vibration     5          0.629              1.869              2.346
 Vibration     6          0.645              1.818              1.998
 Vibration     7          0.671              1.739              1.634
 Vibration     8          0.673              1.732              1.610
 Vibration     9          0.750              1.514              1.041
 Vibration    10          0.852              1.259              0.668
 Vibration    11          0.930              1.088              0.497

 ## DEPERTURBED TRANSITIONS MOMENTS ##

 Electric dipole : Fundamental Bands
 ------------------------------------------------------------------------

 ## AFTER VARIATIONAL CORRECTION

 Electric dipole : Fundamental Bands
 ------------------------------------------------------------------------

                           ! Non-Optimized Parameters !
 Normal termination of Gaussian 16 at Sat Mar 22 23:30:05 2025.
