 Gaussian 16, Revision C.01,
 Gaussian 16:  EM64L-G16RevC.01  3-Jul-2019

 ----------------------------------------------
 # MP2/aug-cc-pVDZ opt freq=(vibrot,anharmonic)
 ----------------------------------------------

 ----
 blah
 ----
 Symbolic Z-matrix:
 Charge =  0 Multiplicity = 1

 SCF Done:  E(RHF) =  -341.710960099     A.U. after   14 cycles
 E2 =    -0.1023099108D+01 EUMP2 =    -0.34273405920725D+03
 SCF Done:  E(RHF) =  -341.711030402     A.U. after   13 cycles
 E2 =    -0.1025089722D+01 EUMP2 =    -0.34273612012402D+03
 SCF Done:  E(RHF) =  -341.706582706     A.U. after   14 cycles
 E2 =    -0.1026519486D+01 EUMP2 =    -0.34273310219146D+03
 SCF Done:  E(RHF) =  -341.712714582     A.U. after   12 cycles
 E2 =    -0.1024285153D+01 EUMP2 =    -0.34273699973434D+03
 SCF Done:  E(RHF) =  -341.713105353     A.U. after   12 cycles
 E2 =    -0.1024007285D+01 EUMP2 =    -0.34273711263838D+03
 SCF Done:  E(RHF) =  -341.713185135     A.U. after   13 cycles
 E2 =    -0.1023910033D+01 EUMP2 =    -0.34273709516792D+03
 SCF Done:  E(RHF) =  -341.713653429     A.U. after   13 cycles
 E2 =    -0.1023427074D+01 EUMP2 =    -0.34273708050282D+03
 SCF Done:  E(RHF) =  -341.713377072     A.U. after   12 cycles
 E2 =    -0.1023825662D+01 EUMP2 =    -0.34273720273434D+03
 SCF Done:  E(RHF) =  -341.713368623     A.U. after   11 cycles
 E2 =    -0.1023848940D+01 EUMP2 =    -0.34273721756288D+03
 SCF Done:  E(RHF) =  -341.713165786     A.U. after   13 cycles
 E2 =    -0.1023954989D+01 EUMP2 =    -0.34273712077543D+03
 E2 =    -0.1023847862D+01 EUMP2 =    -0.34273723151098D+03
 E2 =    -0.1023884110D+01 EUMP2 =    -0.34273723722826D+03
 E2 =    -0.1024020485D+01 EUMP2 =    -0.34273725703519D+03
 E2 =    -0.1024033976D+01 EUMP2 =    -0.34273726289836D+03
 E2 =    -0.1024045304D+01 EUMP2 =    -0.34273726353942D+03
 Optimization completed.
    -- Stationary point found.
 Normal termination of Gaussian 16 at Sat Mar 22 17:41:47 2025.

 ----------------------------------------------------------------------
 #N Geom=AllCheck Guess=TCheck SCRF=Check GenChk RMP2(FC)/Aug-CC-pVDZ F
 req
 ----------------------------------------------------------------------

 Structure from the checkpoint file:  "/scr/Gau-88468.chk"
 ----
 blah
 ----
 Charge =  0 Multiplicity = 1

                         Standard orientation:
 ---------------------------------------------------------------------
 Center     Atomic      Atomic             Coordinates (Angstroms)
 Number     Number       Type             X           Y           Z
 ---------------------------------------------------------------------
      1          6           0        0.133672    0.872667    0.000103
      2          6           0        0.519117   -0.435026    0.000878
      3          1           0        0.880046    1.671829   -0.000902
      4          8           0       -1.131413    1.340312    0.000430
      5          6           0        1.948397   -0.781078    0.000358
      6          1           0       -1.759642    0.585945    0.001192
      7          8           0        2.883338    0.026293   -0.000954
      8          1           0       -0.218830   -1.242401    0.001967
      9          1           0        2.165432   -1.875581    0.001118
     10          8           0       -2.951783   -0.785819   -0.000232
     11          1           0       -3.534590   -0.861618   -0.767823
     12          1           0       -3.540670   -0.863847    0.762461
 ---------------------------------------------------------------------

 E2 =    -0.1024045303D+01 EUMP2 =    -0.34273726353749D+03
 E2 =    -0.1024045303D+01 EUMP2 =    -0.34273726353749D+03
 E2 =    -0.1024045946D+01 EUMP2 =    -0.34273726354617D+03
 E2 =    -0.1024045946D+01 EUMP2 =    -0.34273726354617D+03
 E2 =    -0.1024046084D+01 EUMP2 =    -0.34273726347891D+03
 SCF Done:  E(RHF) =  -341.713337426     A.U. after    9 cycles
 E2 =    -0.1023854315D+01 EUMP2 =    -0.34273719174113D+03
 E2 =    -0.1023854315D+01 EUMP2 =    -0.34273719174113D+03
 SCF Done:  E(RHF) =  -341.712958140     A.U. after    9 cycles
 E2 =    -0.1024236451D+01 EUMP2 =    -0.34273719459103D+03
 E2 =    -0.1024236451D+01 EUMP2 =    -0.34273719459103D+03
 SCF Done:  E(RHF) =  -341.712959293     A.U. after   10 cycles
 E2 =    -0.1024234549D+01 EUMP2 =    -0.34273719384159D+03
 E2 =    -0.1024234549D+01 EUMP2 =    -0.34273719384159D+03
 SCF Done:  E(RHF) =  -341.713333502     A.U. after   10 cycles
 E2 =    -0.1023857638D+01 EUMP2 =    -0.34273719114021D+03
 E2 =    -0.1023857638D+01 EUMP2 =    -0.34273719114021D+03
 SCF Done:  E(RHF) =  -341.713681735     A.U. after   10 cycles
 E2 =    -0.1023494598D+01 EUMP2 =    -0.34273717633280D+03
 E2 =    -0.1023494598D+01 EUMP2 =    -0.34273717633280D+03
 SCF Done:  E(RHF) =  -341.712583004     A.U. after   10 cycles
 E2 =    -0.1024597841D+01 EUMP2 =    -0.34273718084532D+03
 E2 =    -0.1024597841D+01 EUMP2 =    -0.34273718084532D+03
 SCF Done:  E(RHF) =  -341.712510976     A.U. after    9 cycles
 E2 =    -0.1024657954D+01 EUMP2 =    -0.34273716892989D+03
 E2 =    -0.1024657954D+01 EUMP2 =    -0.34273716892989D+03
 SCF Done:  E(RHF) =  -341.713728197     A.U. after    9 cycles
 E2 =    -0.1023435657D+01 EUMP2 =    -0.34273716385346D+03
 E2 =    -0.1023435657D+01 EUMP2 =    -0.34273716385346D+03
 SCF Done:  E(RHF) =  -341.713114624     A.U. after    8 cycles
 E2 =    -0.1024045079D+01 EUMP2 =    -0.34273715970311D+03
 E2 =    -0.1024045079D+01 EUMP2 =    -0.34273715970311D+03
 SCF Done:  E(RHF) =  -341.713115523     A.U. after    8 cycles
 E2 =    -0.1024044095D+01 EUMP2 =    -0.34273715961856D+03
 E2 =    -0.1024044095D+01 EUMP2 =    -0.34273715961856D+03

 Alpha  occ. eigenvalues --  -20.62952 -20.60784 -20.53921 -11.33474 -11.33111
 Alpha  occ. eigenvalues --  -11.22776  -1.41910  -1.40353  -1.35775  -1.04768
 Alpha  occ. eigenvalues --   -0.88338  -0.79522  -0.76574  -0.69546  -0.67412
 Alpha  occ. eigenvalues --   -0.64345  -0.61855  -0.58445  -0.58135  -0.56196
 Alpha  occ. eigenvalues --   -0.53041  -0.51245  -0.40886  -0.34620
 Alpha virt. eigenvalues --    0.01580   0.04415   0.04515   0.05454   0.06956
 Alpha virt. eigenvalues --    0.07275   0.08364   0.11416   0.12149   0.13418
 Alpha virt. eigenvalues --    0.14189   0.15055   0.15335   0.15833   0.17108

 Mulliken charges:
               1
     1  C    0.636619
     2  C    0.824820
     3  H   -0.290310
     4  O   -0.487952
     5  C    0.388582
     6  H    0.197978
     7  O   -0.549375
     8  H   -0.545520
     9  H   -0.138447
    10  O   -0.396218
    11  H    0.189034
    12  H    0.170787
 Sum of Mulliken charges =  -0.00000

 Dipole moment (field-independent basis, Debye):
    X=             -6.4479    Y=             -2.2956    Z=             -0.0198  Tot=              6.8444
 Quadrupole moment (field-independent basis, Debye-Ang):
   XX=            -31.0611   YY=            -36.8297   ZZ=            -35.7485
   XY=              3.6304   XZ=              0.0929   YZ=              0.0157

  Exact polarizability:      77.738      -7.743      62.002       0.070       0.002      40.064
 Approx polarizability:      52.243      -2.447      51.497       0.050      -0.003      38.429

                      1                      2                      3
                      A                      A                      A
 Frequencies --     50.7321                62.3842               106.2935
 Red. masses --      2.4052                 4.7264                 1.2456
 Frc consts  --      0.0036                 0.0108                 0.0083
 IR Inten    --      1.5385                 3.0505                41.2197

                      4                      5                      6
                      A                      A                      A
 Frequencies --    169.0895               198.8211               227.5753
 Red. masses --      5.9981                 1.4823                 2.6421
 Frc consts  --      0.1010                 0.0345                 0.0806
 IR Inten    --      3.2893                 7.9267                62.5776

                      7                      8                      9
                      A                      A                      A
 Frequencies --    244.8352               260.6944               321.8458
 Red. masses --      2.1036                 1.7216                 1.6903
 Frc consts  --      0.0743                 0.0689                 0.1032
 IR Inten    --      0.0113               146.6682                 4.1249

                     10                     11                     12
                      A                      A                      A
 Frequencies --    463.4423               739.2492               827.1082
 Red. masses --      4.5592                 5.8535                 1.3842
 Frc consts  --      0.5769                 1.8847                 0.5579
 IR Inten    --      2.8713                78.5153                 9.3646

                     13                     14                     15
                      A                      A                      A
 Frequencies --    854.2201              1005.5958              1013.6829
 Red. masses --      1.2193                 1.6939                 2.3052
 Frc consts  --      0.5242                 1.0092                 1.3956
 IR Inten    --     55.4613                 3.1998                78.1538

                     16                     17                     18
                      A                      A                      A
 Frequencies --   1034.0767              1190.2116              1304.0623
 Red. masses --      1.1651                 1.7454                 2.0642
 Frc consts  --      0.7340                 1.4568                 2.0682
 IR Inten    --     69.2264               158.2275                31.7420

                     19                     20                     21
                      A                      A                      A
 Frequencies --   1323.1089              1416.4994              1451.3727
 Red. masses --      1.4789                 1.2165                 1.3164
 Frc consts  --      1.5254                 1.4382                 1.6337
 IR Inten    --     25.6403                 1.1711                 5.5206

                     22                     23                     24
                      A                      A                      A
 Frequencies --   1627.4124              1663.6488              1715.4291
 Red. masses --      1.0833                 6.7826                 5.8870
 Frc consts  --      1.6905                11.0603                10.2068
 IR Inten    --     66.7937               666.9596                84.0879

                     25                     26                     27
                      A                      A                      A
 Frequencies --   2965.8123              3226.6766              3242.1199
 Red. masses --      1.0839                 1.0935                 1.0920
 Frc consts  --      5.6174                 6.7075                 6.7627
 IR Inten    --    142.0405                 3.4159                 4.6836

                     28                     29                     30
                      A                      A                      A
 Frequencies --   3544.8953              3791.2714              3920.2177
 Red. masses --      1.0671                 1.0454                 1.0816
 Frc consts  --      7.9008                 8.8529                 9.7939
 IR Inten    --    754.1162                16.1553               102.7082

 - Thermochemistry -
 -------------------
 Temperature   298.150 Kelvin.  Pressure   1.00000 Atm.
 Atom     1 has atomic number  6 and mass  12.00000

 Molecular mass:    90.03169 amu.
 Principal axes and moments of inertia in atomic units:
                           1         2         3
     Eigenvalues --   243.533681344.616281579.72156
           X            0.99996   0.00943   0.00004
           Y           -0.00943   0.99996  -0.00003
           Z           -0.00004   0.00003   1.00000
 This molecule is an asymmetric top.
 Rotational symmetry number  1.
 Rotational temperatures (Kelvin)      0.35565     0.06442     0.05483
 Rotational constants (GHZ):           7.41064     1.34220     1.14244
 Zero-point vibrational energy     239028.1 (Joules/Mol)
                                   57.12910 (Kcal/Mol)
 Warning -- explicit consideration of  10 degrees of freedom as
           vibrations may cause significant error
 Vibrational temperatures:     72.99    89.76   152.93   243.28   286.06
          (Kelvin)            327.43   352.26   375.08   463.06   666.79
                             1063.61  1190.02  1229.03  1446.83  1458.46
                             1487.81  1712.45  1876.25  1903.66  2038.03
                             2088.20  2341.48  2393.62  2468.12  4267.14
                             4642.47  4664.69  5100.31  5454.79  5640.32

 Zero-point correction=                           0.091041 (Hartree/Particle)
 Thermal correction to Energy=                    0.099938
 Thermal correction to Enthalpy=                  0.100882
 Thermal correction to Gibbs Free Energy=         0.056866
 Sum of electronic and zero-point Energies=           -342.646223
 Sum of electronic and thermal Energies=              -342.637326
 Sum of electronic and thermal Enthalpies=            -342.636382
 Sum of electronic and thermal Free Energies=         -342.680397

                     E (Thermal)             CV                S
                      KCal/Mol        Cal/Mol-Kelvin    Cal/Mol-Kelvin
 Total                   62.712             27.666             92.639
 Electronic               0.000              0.000              0.000
 Translational            0.889              2.981             39.405
 Rotational               0.889              2.981             27.739
 Vibrational             60.934             21.705             25.495
 Vibration     1          0.595              1.977              4.789
 Vibration     2          0.597              1.972              4.380
 Vibration     3          0.605              1.944              3.336
 Vibration     4          0.625              1.881              2.446
 Vibration     5          0.637              1.842              2.144
 Vibration     6          0.651              1.799              1.898
 Vibration     7          0.660              1.771              1.767
 Vibration     8          0.669              1.745              1.657
 Vibration     9          0.707              1.632              1.301
 Vibration    10          0.821              1.331              0.756

 ## DEPERTURBED TRANSITIONS MOMENTS ##

 Electric dipole : Fundamental Bands
 ------------------------------------------------------------------------

 ## AFTER VARIATIONAL CORRECTION

 Electric dipole : Fundamental Bands
 ------------------------------------------------------------------------

                           ! Non-Optimized Parameters !
 Normal termination of Gaussian 16 at Sat Mar 22 21:52:49 2025.
