 Gaussian 16, Revision C.01,
 Gaussian 16:  EM64L-G16RevC.01  3-Jul-2019

 ----------------------------------------------
 # MP2/aug-cc-pVDZ opt freq=(vibrot,anharmonic)
 ----------------------------------------------

 ----
 blah
 ----
 Symbolic Z-matrix:
 Charge =  0 Multiplicity = 1

 SCF Done:  E(RHF) =  -321.879537851     A.U. after   14 cycles
 E2 =    -0.1005131586D+01 EUMP2 =    -0.32288466943687D+03
 SCF Done:  E(RHF) =  -321.879806528     A.U. after   13 cycles
 E2 =    -0.1007994546D+01 EUMP2 =    -0.32288780107391D+03
 SCF Done:  E(RHF) =  -321.877790397     A.U. after   14 cycles
 E2 =    -0.1008696351D+01 EUMP2 =    -0.32288648674759D+03
 SCF Done:  E(RHF) =  -321.880960862     A.U. after   13 cycles
 E2 =    -0.1007307092D+01 EUMP2 =    -0.32288826795426D+03
 SCF Done:  E(RHF) =  -321.881118745     A.U. after   12 cycles
 E2 =    -0.1007276775D+01 EUMP2 =    -0.32288839552006D+03
 SCF Done:  E(RHF) =  -321.881039169     A.U. after   13 cycles
 E2 =    -0.1007121279D+01 EUMP2 =    -0.32288816044767D+03
 SCF Done:  E(RHF) =  -321.881496430     A.U. after   13 cycles
 E2 =    -0.1006918918D+01 EUMP2 =    -0.32288841534832D+03
 SCF Done:  E(RHF) =  -321.881427754     A.U. after   11 cycles
 E2 =    -0.1006999099D+01 EUMP2 =    -0.32288842685338D+03
 SCF Done:  E(RHF) =  -321.881372370     A.U. after   11 cycles
 E2 =    -0.1007061999D+01 EUMP2 =    -0.32288843436843D+03
 SCF Done:  E(RHF) =  -321.881361044     A.U. after    9 cycles
 E2 =    -0.1007077474D+01 EUMP2 =    -0.32288843851779D+03
 E2 =    -0.1007116614D+01 EUMP2 =    -0.32288844076842D+03
 E2 =    -0.1007139549D+01 EUMP2 =    -0.32288844165550D+03
 E2 =    -0.1007146394D+01 EUMP2 =    -0.32288844177845D+03
 E2 =    -0.1007153908D+01 EUMP2 =    -0.32288844183783D+03
 E2 =    -0.1007158146D+01 EUMP2 =    -0.32288844187657D+03
 E2 =    -0.1007161854D+01 EUMP2 =    -0.32288844189079D+03
 E2 =    -0.1007164703D+01 EUMP2 =    -0.32288844191355D+03
 E2 =    -0.1007167272D+01 EUMP2 =    -0.32288844194270D+03
 E2 =    -0.1007168196D+01 EUMP2 =    -0.32288844197824D+03
 E2 =    -0.1007165570D+01 EUMP2 =    -0.32288844201808D+03
 Optimization completed.
    -- Stationary point found.
 Normal termination of Gaussian 16 at Sat Mar 22 17:41:43 2025.

 ----------------------------------------------------------------------
 #N Geom=AllCheck Guess=TCheck SCRF=Check GenChk RMP2(FC)/Aug-CC-pVDZ F
 req
 ----------------------------------------------------------------------

 Structure from the checkpoint file:  "/scr/Gau-80392.chk"
 ----
 blah
 ----
 Charge =  0 Multiplicity = 1

                         Standard orientation:
 ---------------------------------------------------------------------
 Center     Atomic      Atomic             Coordinates (Angstroms)
 Number     Number       Type             X           Y           Z
 ---------------------------------------------------------------------
      1          6           0        0.178489    0.113100    0.000047
      2          6           0       -1.121789    0.520323    0.000004
      3          1           0        0.416032   -0.960846    0.000134
      4          8           0        1.223902    0.957557    0.000018
      5          6           0       -2.167830   -0.496425    0.000059
      6          1           0        2.063906    0.423550    0.000058
      7          8           0       -3.382146   -0.270964   -0.000067
      8          1           0       -1.391547    1.579361   -0.000070
      9          1           0       -1.796291   -1.552949    0.000057
     10          7           0        3.560326   -0.526637   -0.000016
     11          1           0        4.342334    0.129299   -0.000993
     12          1           0        3.688530   -1.122753    0.818180
     13          1           0        3.687483   -1.123933   -0.817517
 ---------------------------------------------------------------------

 SCF Done:  E(RHF) =  -321.880653745     A.U. after   10 cycles
 E2 =    -0.1007718823D+01 EUMP2 =    -0.32288837256740D+03
 E2 =    -0.1007718823D+01 EUMP2 =    -0.32288837256740D+03
 SCF Done:  E(RHF) =  -321.881767531     A.U. after   10 cycles
 E2 =    -0.1006601949D+01 EUMP2 =    -0.32288836948067D+03
 E2 =    -0.1006601949D+01 EUMP2 =    -0.32288836948067D+03
 SCF Done:  E(RHF) =  -321.881281958     A.U. after   10 cycles
 E2 =    -0.1007087696D+01 EUMP2 =    -0.32288836965416D+03
 E2 =    -0.1007087696D+01 EUMP2 =    -0.32288836965416D+03
 SCF Done:  E(RHF) =  -321.881139159     A.U. after   10 cycles
 E2 =    -0.1007233022D+01 EUMP2 =    -0.32288837218060D+03
 E2 =    -0.1007233022D+01 EUMP2 =    -0.32288837218060D+03
 SCF Done:  E(RHF) =  -321.881628882     A.U. after    8 cycles
 E2 =    -0.1006730384D+01 EUMP2 =    -0.32288835926681D+03
 E2 =    -0.1006730384D+01 EUMP2 =    -0.32288835926681D+03
 SCF Done:  E(RHF) =  -321.880769137     A.U. after    8 cycles
 E2 =    -0.1007592364D+01 EUMP2 =    -0.32288836150126D+03
 E2 =    -0.1007592364D+01 EUMP2 =    -0.32288836150126D+03
 SCF Done:  E(RHF) =  -321.881199720     A.U. after    8 cycles
 E2 =    -0.1007154462D+01 EUMP2 =    -0.32288835418136D+03
 E2 =    -0.1007154462D+01 EUMP2 =    -0.32288835418136D+03
 SCF Done:  E(RHF) =  -321.881187606     A.U. after    8 cycles
 E2 =    -0.1007165023D+01 EUMP2 =    -0.32288835262863D+03
 E2 =    -0.1007165023D+01 EUMP2 =    -0.32288835262863D+03
 SCF Done:  E(RHF) =  -321.881193469     A.U. after    8 cycles
 E2 =    -0.1007159731D+01 EUMP2 =    -0.32288835320014D+03
 E2 =    -0.1007159731D+01 EUMP2 =    -0.32288835320014D+03
 SCF Done:  E(RHF) =  -321.881193514     A.U. after    8 cycles
 E2 =    -0.1007159675D+01 EUMP2 =    -0.32288835318910D+03
 E2 =    -0.1007159675D+01 EUMP2 =    -0.32288835318909D+03

 Alpha  occ. eigenvalues --  -20.59853 -20.53574 -15.61239 -11.33603 -11.32646
 Alpha  occ. eigenvalues --  -11.22871  -1.41088  -1.35279  -1.20289  -1.05825
 Alpha  occ. eigenvalues --   -0.85996  -0.77902  -0.73404  -0.68577  -0.68218
 Alpha  occ. eigenvalues --   -0.66568  -0.60349  -0.58773  -0.58064  -0.53554
 Alpha  occ. eigenvalues --   -0.50781  -0.48903  -0.40549  -0.34398
 Alpha virt. eigenvalues --    0.01264   0.03793   0.04113   0.05112   0.05990
 Alpha virt. eigenvalues --    0.07052   0.08880   0.10644   0.10934   0.12761
 Alpha virt. eigenvalues --    0.13293   0.14339   0.14770   0.15755   0.16366

 Mulliken charges:
               1
     1  C    0.835725
     2  C    0.644101
     3  H   -0.514992
     4  O   -0.641875
     5  C    0.553896
     6  H    0.354373
     7  O   -0.581338
     8  H   -0.431920
     9  H   -0.166130
    10  N   -0.189513
    11  H    0.031074
    12  H    0.041786
    13  H    0.064814
 Sum of Mulliken charges =  -0.00000

 Dipole moment (field-independent basis, Debye):
    X=              8.4056    Y=             -2.2966    Z=             -0.0067  Tot=              8.7137
 Quadrupole moment (field-independent basis, Debye-Ang):
   XX=            -35.4383   YY=            -36.2771   ZZ=            -37.6709
   XY=             -5.8335   XZ=             -0.0273   YZ=              0.0197

  Exact polarizability:     104.046       1.127      56.043      -0.036       0.074      43.069
 Approx polarizability:      69.034      -1.063      46.976      -0.015       0.066      41.305

                      1                      2                      3
                      A                      A                      A
 Frequencies --     30.1736                54.7456                74.0276
 Red. masses --      1.0575                 3.8413                 2.1990
 Frc consts  --      0.0006                 0.0068                 0.0071
 IR Inten    --      0.1852                 1.6227                 1.8132

                      4                      5                      6
                      A                      A                      A
 Frequencies --    156.7592               200.9157               254.5020
 Red. masses --      5.0594                 4.7843                 3.2476
 Frc consts  --      0.0733                 0.1138                 0.1239
 IR Inten    --      5.5177                12.2806                27.7912

                      7                      8                      9
                      A                      A                      A
 Frequencies --    306.1674               358.0779               363.3627
 Red. masses --      1.2259                 1.3214                 2.3227
 Frc consts  --      0.0677                 0.0998                 0.1807
 IR Inten    --     14.3315                13.7460                 0.3366

                     10                     11                     12
                      A                      A                      A
 Frequencies --    503.1704               571.5091               839.7790
 Red. masses --      8.6390                 3.3672                 1.5688
 Frc consts  --      1.2887                 0.6480                 0.6519
 IR Inten    --      2.5893                21.4791                28.0189

                     13                     14                     15
                      A                      A                      A
 Frequencies --    956.4936               976.7718              1012.0903
 Red. masses --      1.2003                 1.1993                 1.3967
 Frc consts  --      0.6470                 0.6741                 0.8429
 IR Inten    --     83.2850                26.1714                 0.1303

                     16                     17                     18
                      A                      A                      A
 Frequencies --   1154.2345              1166.0823              1213.4615
 Red. masses --      1.1888                 1.8079                 2.4874
 Frc consts  --      0.9331                 1.4484                 2.1580
 IR Inten    --    176.3283               111.6004               122.7413

                     19                     20                     21
                      A                      A                      A
 Frequencies --   1244.3359              1334.8155              1410.5382
 Red. masses --      2.9866                 1.3131                 1.2536
 Frc consts  --      2.7246                 1.3785                 1.4695
 IR Inten    --     57.6253                26.1651                35.2797

                     22                     23                     24
                      A                      A                      A
 Frequencies --   1500.4792              1646.8497              1648.1839
 Red. masses --      1.2959                 1.0827                 1.0610
 Frc consts  --      1.7190                 1.7301                 1.6982
 IR Inten    --    197.6648                 6.6831                18.4012

                     25                     26                     27
                      A                      A                      A
 Frequencies --   1697.3966              1724.5804              2919.2673
 Red. masses --      6.9032                 3.8486                 1.0822
 Frc consts  --     11.7184                 6.7440                 5.4337
 IR Inten    --    103.6642               548.1416                98.0039

                     28                     29                     30
                      A                      A                      A
 Frequencies --   3154.2244              3241.0508              3243.7586
 Red. masses --      1.0902                 1.0724                 1.0937
 Frc consts  --      6.3904                 6.6370                 6.7803
 IR Inten    --     48.7500              2010.3141                72.4910

                     31                     32                     33
                      A                      A                      A
 Frequencies --   3475.9201              3621.3154              3625.4372
 Red. masses --      1.0285                 1.0886                 1.0889
 Frc consts  --      7.3213                 8.4107                 8.4328
 IR Inten    --      1.2786                19.1929                18.5784

 - Thermochemistry -
 -------------------
 Temperature   298.150 Kelvin.  Pressure   1.00000 Atm.
 Atom     1 has atomic number  6 and mass  12.00000

 Molecular mass:    89.04768 amu.
 Principal axes and moments of inertia in atomic units:
                           1         2         3
     Eigenvalues --   128.100211830.193161948.66420
           X            0.99989  -0.01450  -0.00000
           Y            0.01450   0.99989  -0.00001
           Z            0.00000   0.00001   1.00000
 This molecule is an asymmetric top.
 Rotational symmetry number  1.
 Rotational temperatures (Kelvin)      0.67614     0.04733     0.04445
 Rotational constants (GHZ):          14.08851     0.98609     0.92614
 Zero-point vibrational energy     273229.9 (Joules/Mol)
                                   65.30352 (Kcal/Mol)
 Warning -- explicit consideration of  11 degrees of freedom as
           vibrations may cause significant error
 Vibrational temperatures:     43.41    78.77   106.51   225.54   289.07
          (Kelvin)            366.17   440.51   515.19   522.80   723.95
                              822.27  1208.25  1376.18  1405.36  1456.17
                             1660.69  1677.73  1745.90  1790.32  1920.50
                             2029.45  2158.85  2369.45  2371.37  2442.18
                             2481.29  4200.17  4538.23  4663.15  4667.05
                             5001.07  5210.27  5216.20

 Zero-point correction=                           0.104068 (Hartree/Particle)
 Thermal correction to Energy=                    0.112856
 Thermal correction to Enthalpy=                  0.113800
 Thermal correction to Gibbs Free Energy=         0.069424
 Sum of electronic and zero-point Energies=           -322.784374
 Sum of electronic and thermal Energies=              -322.775586
 Sum of electronic and thermal Enthalpies=            -322.774642
 Sum of electronic and thermal Free Energies=         -322.819018

                     E (Thermal)             CV                S
                      KCal/Mol        Cal/Mol-Kelvin    Cal/Mol-Kelvin
 Total                   70.818             27.570             93.398
 Electronic               0.000              0.000              0.000
 Translational            0.889              2.981             39.372
 Rotational               0.889              2.981             27.615
 Vibrational             69.041             21.608             26.411
 Vibration     1          0.594              1.984              5.818
 Vibration     2          0.596              1.976              4.638
 Vibration     3          0.599              1.966              4.043
 Vibration     4          0.620              1.895              2.589
 Vibration     5          0.638              1.839              2.125
 Vibration     6          0.665              1.755              1.699
 Vibration     7          0.697              1.662              1.383
 Vibration     8          0.733              1.559              1.130
 Vibration     9          0.737              1.548              1.108
 Vibration    10          0.858              1.243              0.650
 Vibration    11          0.928              1.093              0.501

 ## DEPERTURBED TRANSITIONS MOMENTS ##

 Electric dipole : Fundamental Bands
 ------------------------------------------------------------------------

 ## AFTER VARIATIONAL CORRECTION

 Electric dipole : Fundamental Bands
 ------------------------------------------------------------------------

 Optimization completed.
    -- Stationary point found.
 Normal termination of Gaussian 16 at Sat Mar 22 23:11:16 2025.
