 Gaussian 16, Revision C.01,
 Gaussian 16:  EM64L-G16RevC.01  3-Jul-2019

 ----------------------------------------------
 # MP2/aug-cc-pVDZ opt freq=(vibrot,anharmonic)
 ----------------------------------------------

 ----
 blah
 ----
 Symbolic Z-matrix:
 Charge =  0 Multiplicity = 1

 SCF Done:  E(RHF) =  -321.870652760     A.U. after   14 cycles
 E2 =    -0.1006346157D+01 EUMP2 =    -0.32287699891709D+03
 SCF Done:  E(RHF) =  -321.870721097     A.U. after   14 cycles
 E2 =    -0.1009033242D+01 EUMP2 =    -0.32287975433913D+03
 SCF Done:  E(RHF) =  -321.870846823     A.U. after   14 cycles
 E2 =    -0.1009060092D+01 EUMP2 =    -0.32287990691512D+03
 SCF Done:  E(RHF) =  -321.868706021     A.U. after   14 cycles
 E2 =    -0.1009640483D+01 EUMP2 =    -0.32287834650457D+03
 SCF Done:  E(RHF) =  -321.871332894     A.U. after   13 cycles
 E2 =    -0.1008791180D+01 EUMP2 =    -0.32288012407356D+03
 SCF Done:  E(RHF) =  -321.871602447     A.U. after   14 cycles
 E2 =    -0.1008406779D+01 EUMP2 =    -0.32288000922532D+03
 SCF Done:  E(RHF) =  -321.871753632     A.U. after   13 cycles
 E2 =    -0.1008431126D+01 EUMP2 =    -0.32288018475803D+03
 SCF Done:  E(RHF) =  -321.872092678     A.U. after   13 cycles
 E2 =    -0.1008140265D+01 EUMP2 =    -0.32288023294280D+03
 SCF Done:  E(RHF) =  -321.871913038     A.U. after   11 cycles
 E2 =    -0.1008341374D+01 EUMP2 =    -0.32288025441189D+03
 SCF Done:  E(RHF) =  -321.871756255     A.U. after   11 cycles
 E2 =    -0.1008512682D+01 EUMP2 =    -0.32288026893705D+03
 E2 =    -0.1008539154D+01 EUMP2 =    -0.32288027089941D+03
 E2 =    -0.1008563235D+01 EUMP2 =    -0.32288027197241D+03
 E2 =    -0.1008578605D+01 EUMP2 =    -0.32288027226367D+03
 E2 =    -0.1008589942D+01 EUMP2 =    -0.32288027235540D+03
 E2 =    -0.1008596585D+01 EUMP2 =    -0.32288027239480D+03
 E2 =    -0.1008599110D+01 EUMP2 =    -0.32288027243466D+03
 E2 =    -0.1008600640D+01 EUMP2 =    -0.32288027246130D+03
 E2 =    -0.1008601695D+01 EUMP2 =    -0.32288027250101D+03
 E2 =    -0.1008602162D+01 EUMP2 =    -0.32288027255937D+03
 E2 =    -0.1008600158D+01 EUMP2 =    -0.32288027262900D+03
 Optimization completed.
    -- Stationary point found.
 Normal termination of Gaussian 16 at Sat Mar 22 09:33:04 2025.

 ----------------------------------------------------------------------
 #N Geom=AllCheck Guess=TCheck SCRF=Check GenChk RMP2(FC)/Aug-CC-pVDZ F
 req
 ----------------------------------------------------------------------

 Structure from the checkpoint file:  "/scr/Gau-84705.chk"
 ----
 blah
 ----
 Charge =  0 Multiplicity = 1

                         Standard orientation:
 ---------------------------------------------------------------------
 Center     Atomic      Atomic             Coordinates (Angstroms)
 Number     Number       Type             X           Y           Z
 ---------------------------------------------------------------------
      1          6           0        0.091021    0.797363   -0.000093
      2          6           0       -1.255383    1.037214    0.000017
      3          1           0        0.785852    1.649538   -0.000146
      4          8           0        0.649835   -0.419240   -0.000180
      5          6           0       -2.311299    0.018200    0.000101
      6          1           0        1.638324   -0.309984   -0.000165
      7          8           0       -2.144469   -1.205455    0.000010
      8          1           0       -1.564844    2.085303    0.000057
      9          1           0       -3.348092    0.435387    0.000261
     10          7           0        3.413678   -0.191789    0.000094
     11          1           0        3.824155    0.259566    0.817783
     12          1           0        3.755494   -1.153616    0.001526
     13          1           0        3.824404    0.257226   -0.818758
 ---------------------------------------------------------------------

 SCF Done:  E(RHF) =  -321.871858149     A.U. after   10 cycles
 E2 =    -0.1008342421D+01 EUMP2 =    -0.32288020056982D+03
 E2 =    -0.1008342421D+01 EUMP2 =    -0.32288020056982D+03
 SCF Done:  E(RHF) =  -321.871362980     A.U. after   10 cycles
 E2 =    -0.1008840372D+01 EUMP2 =    -0.32288020335170D+03
 E2 =    -0.1008840372D+01 EUMP2 =    -0.32288020335170D+03
 SCF Done:  E(RHF) =  -321.871072242     A.U. after   10 cycles
 E2 =    -0.1009130388D+01 EUMP2 =    -0.32288020262991D+03
 E2 =    -0.1009130388D+01 EUMP2 =    -0.32288020262991D+03
 SCF Done:  E(RHF) =  -321.872145649     A.U. after   10 cycles
 E2 =    -0.1008053347D+01 EUMP2 =    -0.32288019899640D+03
 E2 =    -0.1008053347D+01 EUMP2 =    -0.32288019899640D+03
 SCF Done:  E(RHF) =  -321.871170012     A.U. after    8 cycles
 E2 =    -0.1009022061D+01 EUMP2 =    -0.32288019207243D+03
 E2 =    -0.1009022061D+01 EUMP2 =    -0.32288019207243D+03
 SCF Done:  E(RHF) =  -321.872026732     A.U. after    8 cycles
 E2 =    -0.1008163253D+01 EUMP2 =    -0.32288018998545D+03
 E2 =    -0.1008163253D+01 EUMP2 =    -0.32288018998545D+03
 SCF Done:  E(RHF) =  -321.871603677     A.U. after    8 cycles
 E2 =    -0.1008581081D+01 EUMP2 =    -0.32288018475748D+03
 E2 =    -0.1008581081D+01 EUMP2 =    -0.32288018475748D+03
 SCF Done:  E(RHF) =  -321.871582357     A.U. after    8 cycles
 E2 =    -0.1008600969D+01 EUMP2 =    -0.32288018332562D+03
 E2 =    -0.1008600969D+01 EUMP2 =    -0.32288018332562D+03
 SCF Done:  E(RHF) =  -321.871592753     A.U. after    8 cycles
 E2 =    -0.1008590967D+01 EUMP2 =    -0.32288018372035D+03
 E2 =    -0.1008590967D+01 EUMP2 =    -0.32288018372035D+03
 SCF Done:  E(RHF) =  -321.871592745     A.U. after    8 cycles
 E2 =    -0.1008590985D+01 EUMP2 =    -0.32288018373028D+03
 E2 =    -0.1008590985D+01 EUMP2 =    -0.32288018373028D+03

 Alpha  occ. eigenvalues --  -20.58744 -20.53003 -15.60450 -11.33039 -11.31851
 Alpha  occ. eigenvalues --  -11.22054  -1.40177  -1.34514  -1.19490  -1.03888
 Alpha  occ. eigenvalues --   -0.87265  -0.75151  -0.73770  -0.67795  -0.67410
 Alpha  occ. eigenvalues --   -0.63433  -0.62236  -0.56945  -0.55636  -0.54223
 Alpha  occ. eigenvalues --   -0.49514  -0.48032  -0.39433  -0.33517
 Alpha virt. eigenvalues --    0.01700   0.03969   0.04535   0.04783   0.06023
 Alpha virt. eigenvalues --    0.07226   0.08388   0.08969   0.11986   0.12522
 Alpha virt. eigenvalues --    0.14010   0.15199   0.15350   0.15663   0.16452

 Mulliken charges:
               1
     1  C    0.820470
     2  C    0.509428
     3  H   -0.436202
     4  O   -0.591336
     5  C    0.610846
     6  H    0.327162
     7  O   -0.552836
     8  H   -0.493936
     9  H   -0.148416
    10  N   -0.175183
    11  H    0.038263
    12  H    0.030340
    13  H    0.061399
 Sum of Mulliken charges =  -0.00000

 Dipole moment (field-independent basis, Debye):
    X=              6.3215    Y=              3.0854    Z=             -0.0060  Tot=              7.0342
 Quadrupole moment (field-independent basis, Debye-Ang):
   XX=            -20.2469   YY=            -39.0116   ZZ=            -37.8090
   XY=             -5.8611   XZ=             -0.0319   YZ=             -0.0119

  Exact polarizability:      92.484      -0.299      62.782      -0.073      -0.051      44.012
 Approx polarizability:      59.985      -0.714      53.794      -0.048      -0.048      41.861

                      1                      2                      3
                      A                      A                      A
 Frequencies --     28.1721                60.1407                60.6020
 Red. masses --      1.0482                 4.0255                 3.5414
 Frc consts  --      0.0005                 0.0086                 0.0077
 IR Inten    --      0.1686                 7.8323                 4.4364

                      4                      5                      6
                      A                      A                      A
 Frequencies --    146.5854               152.0510               249.3938
 Red. masses --      2.6315                 5.8042                 4.8650
 Frc consts  --      0.0333                 0.0791                 0.1783
 IR Inten    --      1.8232                 0.1844                27.0035

                      7                      8                      9
                      A                      A                      A
 Frequencies --    291.2844               344.9675               401.8585
 Red. masses --      1.2161                 1.2800                 2.2537
 Frc consts  --      0.0608                 0.0897                 0.2144
 IR Inten    --      5.7182                29.6935                31.2125

                     10                     11                     12
                      A                      A                      A
 Frequencies --    470.9068               771.4000               877.7897
 Red. masses --      6.0388                 1.2323                 6.4652
 Frc consts  --      0.7890                 0.4320                 2.9350
 IR Inten    --      3.0767                18.5574                12.0019

                     13                     14                     15
                      A                      A                      A
 Frequencies --    937.5981               946.1303               993.4343
 Red. masses --      1.4335                 3.7427                 1.1099
 Frc consts  --      0.7425                 1.9739                 0.6454
 IR Inten    --     14.1279                79.2585                68.9346

                     16                     17                     18
                      A                      A                      A
 Frequencies --   1010.1733              1119.3944              1146.3429
 Red. masses --      1.5355                 1.5950                 1.1873
 Frc consts  --      0.9232                 1.1776                 0.9193
 IR Inten    --      1.0421                19.8494               157.3166

                     19                     20                     21
                      A                      A                      A
 Frequencies --   1299.7025              1411.4832              1457.1914
 Red. masses --      1.3923                 1.2099                 1.7033
 Frc consts  --      1.3857                 1.4203                 2.1309
 IR Inten    --    103.2321                28.4665                57.4163

                     22                     23                     24
                      A                      A                      A
 Frequencies --   1477.4007              1645.2345              1647.8601
 Red. masses --      1.3601                 1.1134                 1.0615
 Frc consts  --      1.7492                 1.7756                 1.6983
 IR Inten    --    184.0785                48.8875                18.0325

                     25                     26                     27
                      A                      A                      A
 Frequencies --   1673.5952              1729.8998              2941.2831
 Red. masses --      5.4033                 4.0093                 1.0827
 Frc consts  --      8.9168                 7.0691                 5.5186
 IR Inten    --    262.1589               192.9115               193.7878

                     28                     29                     30
                      A                      A                      A
 Frequencies --   3150.4785              3235.1840              3261.0219
 Red. masses --      1.0890                 1.0931                 1.0717
 Frc consts  --      6.3685                 6.7410                 6.7149
 IR Inten    --     31.4921                34.9091              1989.5371

                     31                     32                     33
                      A                      A                      A
 Frequencies --   3476.4113              3621.9584              3628.2764
 Red. masses --      1.0283                 1.0886                 1.0890
 Frc consts  --      7.3224                 8.4142                 8.4468
 IR Inten    --      1.8915                18.9874                17.6364

 - Thermochemistry -
 -------------------
 Temperature   298.150 Kelvin.  Pressure   1.00000 Atm.
 Atom     1 has atomic number  6 and mass  12.00000

 Molecular mass:    89.04768 amu.
 Principal axes and moments of inertia in atomic units:
                           1         2         3
     Eigenvalues --   204.016111385.481081579.85806
           X            0.99984  -0.01786   0.00000
           Y            0.01786   0.99984  -0.00000
           Z           -0.00000   0.00000   1.00000
 This molecule is an asymmetric top.
 Rotational symmetry number  1.
 Rotational temperatures (Kelvin)      0.42454     0.06252     0.05482
 Rotational constants (GHZ):           8.84607     1.30261     1.14234
 Zero-point vibrational energy     273138.6 (Joules/Mol)
                                   65.28169 (Kcal/Mol)
 Warning -- explicit consideration of  10 degrees of freedom as
           vibrations may cause significant error
 Vibrational temperatures:     40.53    86.53    87.19   210.90   218.77
          (Kelvin)            358.82   419.09   496.33   578.18   677.53
                             1109.87  1262.94  1348.99  1361.27  1429.33
                             1453.41  1610.56  1649.33  1869.98  2030.81
                             2096.57  2125.65  2367.13  2370.90  2407.93
                             2488.94  4231.85  4532.84  4654.71  4691.88
                             5001.78  5211.19  5220.28

 Zero-point correction=                           0.104033 (Hartree/Particle)
 Thermal correction to Energy=                    0.112896
 Thermal correction to Enthalpy=                  0.113840
 Thermal correction to Gibbs Free Energy=         0.069053
 Sum of electronic and zero-point Energies=           -322.776240
 Sum of electronic and thermal Energies=              -322.767376
 Sum of electronic and thermal Enthalpies=            -322.766432
 Sum of electronic and thermal Free Energies=         -322.811219

                     E (Thermal)             CV                S
                      KCal/Mol        Cal/Mol-Kelvin    Cal/Mol-Kelvin
 Total                   70.843             27.477             94.263
 Electronic               0.000              0.000              0.000
 Translational            0.889              2.981             39.372
 Rotational               0.889              2.981             27.593
 Vibrational             69.066             21.516             27.298
 Vibration     1          0.593              1.984              5.954
 Vibration     2          0.597              1.973              4.453
 Vibration     3          0.597              1.973              4.437
 Vibration     4          0.617              1.906              2.716
 Vibration     5          0.619              1.900              2.646
 Vibration     6          0.662              1.764              1.735
 Vibration     7          0.687              1.690              1.466
 Vibration     8          0.723              1.586              1.189
 Vibration     9          0.767              1.466              0.956
 Vibration    10          0.828              1.315              0.735

 ## DEPERTURBED TRANSITIONS MOMENTS ##

 Electric dipole : Fundamental Bands
 ------------------------------------------------------------------------

 ## AFTER VARIATIONAL CORRECTION

 Electric dipole : Fundamental Bands
 ------------------------------------------------------------------------

                           ! Non-Optimized Parameters !
 Normal termination of Gaussian 16 at Sat Mar 22 15:07:54 2025.
