 Gaussian 16, Revision C.01,
 Gaussian 16:  EM64L-G16RevC.01  3-Jul-2019

 ----------------------------------------------
 # MP2/aug-cc-pVDZ opt freq=(vibrot,anharmonic)
 ----------------------------------------------

 ----
 blah
 ----
 Symbolic Z-matrix:
 Charge =  0 Multiplicity = 1

 SCF Done:  E(RHF) =  -321.881540317     A.U. after   14 cycles
 E2 =    -0.1004942871D+01 EUMP2 =    -0.32288648318779D+03
 SCF Done:  E(RHF) =  -321.881207262     A.U. after   13 cycles
 E2 =    -0.1008312282D+01 EUMP2 =    -0.32288951954349D+03
 SCF Done:  E(RHF) =  -321.877968657     A.U. after   14 cycles
 E2 =    -0.1009570814D+01 EUMP2 =    -0.32288753947139D+03
 SCF Done:  E(RHF) =  -321.882868876     A.U. after   12 cycles
 E2 =    -0.1007417129D+01 EUMP2 =    -0.32289028600507D+03
 SCF Done:  E(RHF) =  -321.883116185     A.U. after   11 cycles
 E2 =    -0.1007244367D+01 EUMP2 =    -0.32289036055223D+03
 SCF Done:  E(RHF) =  -321.883217985     A.U. after   12 cycles
 E2 =    -0.1007163026D+01 EUMP2 =    -0.32289038101084D+03
 SCF Done:  E(RHF) =  -321.883255165     A.U. after   11 cycles
 E2 =    -0.1007153263D+01 EUMP2 =    -0.32289040842814D+03
 SCF Done:  E(RHF) =  -321.883253580     A.U. after   12 cycles
 E2 =    -0.1007194909D+01 EUMP2 =    -0.32289044848883D+03
 SCF Done:  E(RHF) =  -321.883222564     A.U. after   11 cycles
 E2 =    -0.1007237074D+01 EUMP2 =    -0.32289045963726D+03
 SCF Done:  E(RHF) =  -321.883129574     A.U. after   11 cycles
 E2 =    -0.1007345437D+01 EUMP2 =    -0.32289047501066D+03
 E2 =    -0.1007409322D+01 EUMP2 =    -0.32289047888361D+03
 E2 =    -0.1007411329D+01 EUMP2 =    -0.32289047917247D+03
 Optimization completed.
    -- Stationary point found.
 Normal termination of Gaussian 16 at Sat Mar 22 19:28:06 2025.

 ----------------------------------------------------------------------
 #N Geom=AllCheck Guess=TCheck SCRF=Check GenChk RMP2(FC)/Aug-CC-pVDZ F
 req
 ----------------------------------------------------------------------

 Structure from the checkpoint file:  "/scr/Gau-90113.chk"
 ----
 blah
 ----
 Charge =  0 Multiplicity = 1

                         Standard orientation:
 ---------------------------------------------------------------------
 Center     Atomic      Atomic             Coordinates (Angstroms)
 Number     Number       Type             X           Y           Z
 ---------------------------------------------------------------------
      1          6           0       -0.086723    1.152197    0.000016
      2          6           0        0.614158   -0.021100   -0.000060
      3          1           0        0.445104    2.110786    0.000140
      4          8           0       -1.418703    1.308004   -0.000056
      5          6           0        2.072164    0.028994    0.000043
      6          1           0       -1.866818    0.414191   -0.000180
      7          8           0        2.813490   -0.959408   -0.000012
      8          1           0        0.123354   -0.997700   -0.000209
      9          1           0        2.509282    1.058475    0.000163
     10          7           0       -2.738073   -1.132431   -0.000010
     11          1           0       -3.749443   -0.996901   -0.000107
     12          1           0       -2.525420   -1.706166   -0.817186
     13          1           0       -2.525435   -1.704989    0.817998
 ---------------------------------------------------------------------

 E2 =    -0.1007411329D+01 EUMP2 =    -0.32289047917308D+03
 E2 =    -0.1007411329D+01 EUMP2 =    -0.32289047917308D+03
 E2 =    -0.1007412627D+01 EUMP2 =    -0.32289047915892D+03
 E2 =    -0.1007412627D+01 EUMP2 =    -0.32289047915892D+03
 E2 =    -0.1007412501D+01 EUMP2 =    -0.32289047914739D+03
 E2 =    -0.1007412501D+01 EUMP2 =    -0.32289047914739D+03
 E2 =    -0.1007406154D+01 EUMP2 =    -0.32289047914748D+03
 E2 =    -0.1007406154D+01 EUMP2 =    -0.32289047914748D+03
 SCF Done:  E(RHF) =  -321.883056497     A.U. after   10 cycles
 E2 =    -0.1007353659D+01 EUMP2 =    -0.32289041015632D+03
 E2 =    -0.1007353659D+01 EUMP2 =    -0.32289041015632D+03
 SCF Done:  E(RHF) =  -321.882938559     A.U. after   10 cycles
 E2 =    -0.1007470089D+01 EUMP2 =    -0.32289040864858D+03
 E2 =    -0.1007470089D+01 EUMP2 =    -0.32289040864858D+03
 SCF Done:  E(RHF) =  -321.883147180     A.U. after    9 cycles
 E2 =    -0.1007259950D+01 EUMP2 =    -0.32289040712979D+03
 E2 =    -0.1007259950D+01 EUMP2 =    -0.32289040712979D+03
 SCF Done:  E(RHF) =  -321.882846357     A.U. after    9 cycles
 E2 =    -0.1007563113D+01 EUMP2 =    -0.32289040946956D+03
 E2 =    -0.1007563113D+01 EUMP2 =    -0.32289040946956D+03
 SCF Done:  E(RHF) =  -321.883422887     A.U. after    8 cycles
 E2 =    -0.1006973723D+01 EUMP2 =    -0.32289039660961D+03
 E2 =    -0.1006973723D+01 EUMP2 =    -0.32289039660961D+03
 SCF Done:  E(RHF) =  -321.882547452     A.U. after    8 cycles
 E2 =    -0.1007851409D+01 EUMP2 =    -0.32289039886107D+03
 E2 =    -0.1007851409D+01 EUMP2 =    -0.32289039886107D+03
 SCF Done:  E(RHF) =  -321.882979654     A.U. after    9 cycles
 E2 =    -0.1007411003D+01 EUMP2 =    -0.32289039065645D+03
 E2 =    -0.1007411003D+01 EUMP2 =    -0.32289039065645D+03
 SCF Done:  E(RHF) =  -321.882979905     A.U. after    9 cycles
 E2 =    -0.1007410775D+01 EUMP2 =    -0.32289039067941D+03
 E2 =    -0.1007410775D+01 EUMP2 =    -0.32289039067941D+03
 SCF Done:  E(RHF) =  -321.882971317     A.U. after    8 cycles
 E2 =    -0.1007420021D+01 EUMP2 =    -0.32289039133813D+03
 E2 =    -0.1007420021D+01 EUMP2 =    -0.32289039133813D+03
 SCF Done:  E(RHF) =  -321.882988021     A.U. after    8 cycles
 E2 =    -0.1007401739D+01 EUMP2 =    -0.32289038976063D+03
 E2 =    -0.1007401739D+01 EUMP2 =    -0.32289038976063D+03

 Alpha  occ. eigenvalues --  -20.60115 -20.53957 -15.60482 -11.34106 -11.33060
 Alpha  occ. eigenvalues --  -11.23477  -1.41288  -1.35682  -1.19566  -1.05962
 Alpha  occ. eigenvalues --   -0.87103  -0.79722  -0.71513  -0.67957  -0.67466
 Alpha  occ. eigenvalues --   -0.66721  -0.60878  -0.58359  -0.58317  -0.55483
 Alpha  occ. eigenvalues --   -0.51229  -0.47928  -0.40955  -0.34946
 Alpha virt. eigenvalues --    0.02042   0.04323   0.04807   0.04880   0.06266
 Alpha virt. eigenvalues --    0.06814   0.09028   0.10078   0.10684   0.11977
 Alpha virt. eigenvalues --    0.14043   0.14826   0.14924   0.15283   0.15453

 Mulliken charges:
               1
     1  C    0.657256
     2  C    0.793326
     3  H   -0.338813
     4  O   -0.544653
     5  C    0.500603
     6  H    0.303669
     7  O   -0.581657
     8  H   -0.539602
     9  H   -0.178804
    10  N   -0.197568
    11  H   -0.014689
    12  H    0.070560
    13  H    0.070371
 Sum of Mulliken charges =  -0.00000

 Dipole moment (field-independent basis, Debye):
    X=             -5.4259    Y=             -0.6696    Z=              0.0007  Tot=              5.4671
 Quadrupole moment (field-independent basis, Debye-Ang):
   XX=            -38.4291   YY=            -36.5342   ZZ=            -37.6624
   XY=             14.6615   XZ=             -0.0011   YZ=              0.0008

  Exact polarizability:      87.083      -9.872      67.995       0.000       0.001      42.796
 Approx polarizability:      58.113      -9.496      57.283       0.000       0.002      41.332

                      1                      2                      3
                      A                      A                      A
 Frequencies --     59.4172                65.7063                94.2931
 Red. masses --      1.0317                 3.5999                 1.6682
 Frc consts  --      0.0021                 0.0092                 0.0087
 IR Inten    --      0.0024                 8.3450                11.6202

                      4                      5                      6
                      A                      A                      A
 Frequencies --    149.7202               192.7169               268.9322
 Red. masses --      6.9785                 4.4144                 3.3825
 Frc consts  --      0.0922                 0.0966                 0.1441
 IR Inten    --      5.1839                19.6635                 8.8898

                      7                      8                      9
                      A                      A                      A
 Frequencies --    303.4619               346.1713               387.5854
 Red. masses --      1.2466                 1.3955                 2.2192
 Frc consts  --      0.0676                 0.0985                 0.1964
 IR Inten    --      6.9400                27.4807                 6.4120

                     10                     11                     12
                      A                      A                      A
 Frequencies --    506.8139               582.7208               831.2402
 Red. masses --      7.4367                 3.2893                 1.5564
 Frc consts  --      1.1255                 0.6581                 0.6336
 IR Inten    --      0.3562                10.8862                21.2172

                     13                     14                     15
                      A                      A                      A
 Frequencies --    944.4654               996.6963              1070.4141
 Red. masses --      1.2099                 1.6295                 1.0868
 Frc consts  --      0.6359                 0.9537                 0.7337
 IR Inten    --      0.2196                 4.4207               100.0397

                     16                     17                     18
                      A                      A                      A
 Frequencies --   1156.1524              1175.2735              1214.0624
 Red. masses --      1.1909                 1.7686                 2.6338
 Frc consts  --      0.9379                 1.4393                 2.2873
 IR Inten    --    142.3790               104.9202               235.6083

                     19                     20                     21
                      A                      A                      A
 Frequencies --   1245.9517              1336.2048              1406.9999
 Red. masses --      2.7173                 1.3136                 1.2772
 Frc consts  --      2.4854                 1.3819                 1.4897
 IR Inten    --     36.0031                33.3732                 8.9357

                     22                     23                     24
                      A                      A                      A
 Frequencies --   1517.8150              1647.9628              1650.0509
 Red. masses --      1.2385                 1.0804                 1.0605
 Frc consts  --      1.6811                 1.7288                 1.7012
 IR Inten    --      9.2231                32.0635                20.0845

                     25                     26                     27
                      A                      A                      A
 Frequencies --   1675.3297              1704.3520              2937.5330
 Red. masses --      4.6571                 6.9137                 1.0831
 Frc consts  --      7.7013                11.8326                 5.5066
 IR Inten    --    157.3029               581.7853               106.4444

                     28                     29                     30
                      A                      A                      A
 Frequencies --   3163.7652              3212.9755              3238.1587
 Red. masses --      1.0759                 1.0873                 1.0925
 Frc consts  --      6.3450                 6.6130                 6.7497
 IR Inten    --   1363.8161               134.2919                20.0136

                     31                     32                     33
                      A                      A                      A
 Frequencies --   3471.3895              3618.9011              3621.1973
 Red. masses --      1.0284                 1.0889                 1.0886
 Frc consts  --      7.3018                 8.4021                 8.4105
 IR Inten    --      0.5994                18.1528                16.9337

 - Thermochemistry -
 -------------------
 Temperature   298.150 Kelvin.  Pressure   1.00000 Atm.
 Atom     1 has atomic number  6 and mass  12.00000

 Molecular mass:    89.04768 amu.
 Principal axes and moments of inertia in atomic units:
                           1         2         3
     Eigenvalues --   321.811741280.533531592.72215
           X            0.99842   0.05616  -0.00000
           Y           -0.05616   0.99842   0.00000
           Z            0.00000  -0.00000   1.00000
 This molecule is an asymmetric top.
 Rotational symmetry number  1.
 Rotational temperatures (Kelvin)      0.26914     0.06764     0.05438
 Rotational constants (GHZ):           5.60807     1.40937     1.13312
 Zero-point vibrational energy     273911.5 (Joules/Mol)
                                   65.46643 (Kcal/Mol)
 Warning -- explicit consideration of  11 degrees of freedom as
           vibrations may cause significant error
 Vibrational temperatures:     85.49    94.54   135.67   215.41   277.28
          (Kelvin)            386.93   436.61   498.06   557.65   729.19
                              838.41  1195.97  1358.88  1434.02  1540.09
                             1663.45  1690.96  1746.76  1792.65  1922.50
                             2024.36  2183.80  2371.05  2374.06  2410.43
                             2452.18  4226.45  4551.95  4622.76  4658.99
                             4994.56  5206.79  5210.10

 Zero-point correction=                           0.104327 (Hartree/Particle)
 Thermal correction to Energy=                    0.112972
 Thermal correction to Enthalpy=                  0.113916
 Thermal correction to Gibbs Free Energy=         0.070407
 Sum of electronic and zero-point Energies=           -322.786152
 Sum of electronic and thermal Energies=              -322.777507
 Sum of electronic and thermal Enthalpies=            -322.776563
 Sum of electronic and thermal Free Energies=         -322.820072

                     E (Thermal)             CV                S
                      KCal/Mol        Cal/Mol-Kelvin    Cal/Mol-Kelvin
 Total                   70.891             27.422             91.572
 Electronic               0.000              0.000              0.000
 Translational            0.889              2.981             39.372
 Rotational               0.889              2.981             27.975
 Vibrational             69.113             21.460             24.225
 Vibration     1          0.597              1.974              4.476
 Vibration     2          0.597              1.971              4.278
 Vibration     3          0.603              1.953              3.569
 Vibration     4          0.618              1.903              2.676
 Vibration     5          0.635              1.850              2.202
 Vibration     6          0.673              1.730              1.603
 Vibration     7          0.695              1.667              1.398
 Vibration     8          0.724              1.583              1.184
 Vibration     9          0.756              1.497              1.009
 Vibration    10          0.862              1.235              0.641
 Vibration    11          0.940              1.069              0.480

 ## DEPERTURBED TRANSITIONS MOMENTS ##

 Electric dipole : Fundamental Bands
 ------------------------------------------------------------------------

 ## AFTER VARIATIONAL CORRECTION

 Electric dipole : Fundamental Bands
 ------------------------------------------------------------------------

 Optimization completed.
    -- Stationary point found.
 Normal termination of Gaussian 16 at Sun Mar 23 01:01:31 2025.
