 Gaussian 16, Revision C.01,
 Gaussian 16:  EM64L-G16RevC.01  3-Jul-2019

 ----------------------------------------------
 # MP2/aug-cc-pVDZ opt freq=(vibrot,anharmonic)
 ----------------------------------------------

 ----
 blah
 ----
 Symbolic Z-matrix:
 Charge =  0 Multiplicity = 1

 SCF Done:  E(RHF) =  -321.877881812     A.U. after   14 cycles
 E2 =    -0.1004691228D+01 EUMP2 =    -0.32288257303960D+03
 SCF Done:  E(RHF) =  -321.878031554     A.U. after   13 cycles
 E2 =    -0.1007250710D+01 EUMP2 =    -0.32288528226399D+03
 SCF Done:  E(RHF) =  -321.875561631     A.U. after   14 cycles
 E2 =    -0.1007732509D+01 EUMP2 =    -0.32288329413975D+03
 SCF Done:  E(RHF) =  -321.879378775     A.U. after   12 cycles
 E2 =    -0.1006447605D+01 EUMP2 =    -0.32288582638064D+03
 SCF Done:  E(RHF) =  -321.879522895     A.U. after   11 cycles
 E2 =    -0.1006430228D+01 EUMP2 =    -0.32288595312288D+03
 SCF Done:  E(RHF) =  -321.879497820     A.U. after   14 cycles
 E2 =    -0.1006302764D+01 EUMP2 =    -0.32288580058367D+03
 SCF Done:  E(RHF) =  -321.879869269     A.U. after   14 cycles
 E2 =    -0.1005840193D+01 EUMP2 =    -0.32288570946217D+03
 SCF Done:  E(RHF) =  -321.879890709     A.U. after   13 cycles
 E2 =    -0.1006259819D+01 EUMP2 =    -0.32288615052830D+03
 SCF Done:  E(RHF) =  -321.879537014     A.U. after   12 cycles
 E2 =    -0.1006497325D+01 EUMP2 =    -0.32288603433921D+03
 SCF Done:  E(RHF) =  -321.879822929     A.U. after   12 cycles
 E2 =    -0.1006339479D+01 EUMP2 =    -0.32288616240805D+03
 E2 =    -0.1006628263D+01 EUMP2 =    -0.32288619945967D+03
 E2 =    -0.1006578683D+01 EUMP2 =    -0.32288620538012D+03
 E2 =    -0.1006596677D+01 EUMP2 =    -0.32288620830523D+03
 E2 =    -0.1006628387D+01 EUMP2 =    -0.32288620888139D+03
 E2 =    -0.1006670819D+01 EUMP2 =    -0.32288620926286D+03
 Optimization completed.
    -- Stationary point found.
 Normal termination of Gaussian 16 at Sat Mar 22 17:48:55 2025.

 ----------------------------------------------------------------------
 #N Geom=AllCheck Guess=TCheck SCRF=Check GenChk RMP2(FC)/Aug-CC-pVDZ F
 req
 ----------------------------------------------------------------------

 Structure from the checkpoint file:  "/scr/Gau-48735.chk"
 ----
 blah
 ----
 Charge =  0 Multiplicity = 1

                         Standard orientation:
 ---------------------------------------------------------------------
 Center     Atomic      Atomic             Coordinates (Angstroms)
 Number     Number       Type             X           Y           Z
 ---------------------------------------------------------------------
      1          6           0        0.135593    0.861077   -0.000005
      2          6           0        0.541736   -0.443880   -0.000004
      3          1           0        0.882365    1.661053    0.000015
      4          8           0       -1.125255    1.317389   -0.000004
      5          6           0        1.973237   -0.771498   -0.000001
      6          1           0       -1.768954    0.555368   -0.000139
      7          8           0        2.900245    0.045781   -0.000006
      8          1           0       -0.179463   -1.265766    0.000006
      9          1           0        2.203243   -1.863883    0.000049
     10          7           0       -3.038080   -0.707557   -0.000041
     11          1           0       -3.964374   -0.279286   -0.001468
     12          1           0       -3.004157   -1.318406   -0.817046
     13          1           0       -3.005420   -1.315732    0.819012
 ---------------------------------------------------------------------

 E2 =    -0.1006670820D+01 EUMP2 =    -0.32288620926365D+03
 E2 =    -0.1006670820D+01 EUMP2 =    -0.32288620926365D+03
 E2 =    -0.1006671415D+01 EUMP2 =    -0.32288620924131D+03
 E2 =    -0.1006671415D+01 EUMP2 =    -0.32288620924131D+03
 E2 =    -0.1006671457D+01 EUMP2 =    -0.32288620925236D+03
 SCF Done:  E(RHF) =  -321.879550439     A.U. after    9 cycles
 E2 =    -0.1006587020D+01 EUMP2 =    -0.32288613745981D+03
 E2 =    -0.1006587020D+01 EUMP2 =    -0.32288613745981D+03
 SCF Done:  E(RHF) =  -321.879385534     A.U. after    9 cycles
 E2 =    -0.1006754671D+01 EUMP2 =    -0.32288614020504D+03
 E2 =    -0.1006754671D+01 EUMP2 =    -0.32288614020504D+03
 SCF Done:  E(RHF) =  -321.879592665     A.U. after   10 cycles
 E2 =    -0.1006545827D+01 EUMP2 =    -0.32288613849197D+03
 E2 =    -0.1006545827D+01 EUMP2 =    -0.32288613849197D+03
 SCF Done:  E(RHF) =  -321.879340967     A.U. after   10 cycles
 E2 =    -0.1006797120D+01 EUMP2 =    -0.32288613808687D+03
 E2 =    -0.1006797120D+01 EUMP2 =    -0.32288613808687D+03
 SCF Done:  E(RHF) =  -321.879891282     A.U. after    8 cycles
 E2 =    -0.1006235652D+01 EUMP2 =    -0.32288612693393D+03
 E2 =    -0.1006235652D+01 EUMP2 =    -0.32288612693393D+03
 SCF Done:  E(RHF) =  -321.879020189     A.U. after    8 cycles
 E2 =    -0.1007108452D+01 EUMP2 =    -0.32288612864100D+03
 E2 =    -0.1007108452D+01 EUMP2 =    -0.32288612864100D+03
 SCF Done:  E(RHF) =  -321.879446238     A.U. after    9 cycles
 E2 =    -0.1006675169D+01 EUMP2 =    -0.32288612140642D+03
 E2 =    -0.1006675169D+01 EUMP2 =    -0.32288612140642D+03
 SCF Done:  E(RHF) =  -321.879454333     A.U. after    8 cycles
 E2 =    -0.1006665555D+01 EUMP2 =    -0.32288611988839D+03
 E2 =    -0.1006665555D+01 EUMP2 =    -0.32288611988839D+03
 SCF Done:  E(RHF) =  -321.879450331     A.U. after    8 cycles
 E2 =    -0.1006670340D+01 EUMP2 =    -0.32288612067049D+03
 E2 =    -0.1006670340D+01 EUMP2 =    -0.32288612067049D+03
 SCF Done:  E(RHF) =  -321.879450207     A.U. after    8 cycles
 E2 =    -0.1006670340D+01 EUMP2 =    -0.32288612054695D+03
 E2 =    -0.1006670340D+01 EUMP2 =    -0.32288612054695D+03

 Alpha  occ. eigenvalues --  -20.59844 -20.53688 -15.60493 -11.33395 -11.32982
 Alpha  occ. eigenvalues --  -11.22648  -1.40936  -1.35555  -1.19555  -1.04532
 Alpha  occ. eigenvalues --   -0.88001  -0.79054  -0.69492  -0.67785  -0.67393
 Alpha  occ. eigenvalues --   -0.66710  -0.61896  -0.57802  -0.57709  -0.54663
 Alpha  occ. eigenvalues --   -0.51069  -0.47778  -0.40701  -0.34287
 Alpha virt. eigenvalues --    0.01765   0.03958   0.04549   0.05451   0.05928
 Alpha virt. eigenvalues --    0.07227   0.08578   0.09103   0.11523   0.12103
 Alpha virt. eigenvalues --    0.13212   0.14470   0.15182   0.15432   0.16103

 Mulliken charges:
               1
     1  C    0.669924
     2  C    0.807525
     3  H   -0.316536
     4  O   -0.523866
     5  C    0.428402
     6  H    0.292091
     7  O   -0.557626
     8  H   -0.585009
     9  H   -0.141681
    10  N   -0.197146
    11  H   -0.000860
    12  H    0.050395
    13  H    0.074386
 Sum of Mulliken charges =  -0.00000

 Dipole moment (field-independent basis, Debye):
    X=             -6.2527    Y=             -3.0785    Z=              0.0069  Tot=              6.9695
 Quadrupole moment (field-independent basis, Debye-Ang):
   XX=            -35.8161   YY=            -35.6925   ZZ=            -37.6899
   XY=              4.0612   XZ=             -0.0185   YZ=             -0.0204

  Exact polarizability:      86.150      -6.295      66.669      -0.014      -0.074      42.997
 Approx polarizability:      56.407      -2.569      56.017       0.002      -0.068      41.338

                      1                      2                      3
                      A                      A                      A
 Frequencies --     49.8590                59.2748                67.0695
 Red. masses --      2.0507                 1.3066                 3.3169
 Frc consts  --      0.0030                 0.0027                 0.0088
 IR Inten    --      0.5114                 0.3126                 2.7638

                      4                      5                      6
                      A                      A                      A
 Frequencies --    179.3320               208.6957               252.0887
 Red. masses --      5.5173                 1.6449                 2.3244
 Frc consts  --      0.1045                 0.0422                 0.0870
 IR Inten    --      4.5092                16.7417                 0.7783

                      7                      8                      9
                      A                      A                      A
 Frequencies --    255.3361               321.1097               338.2184
 Red. masses --      4.5878                 1.3318                 1.5134
 Frc consts  --      0.1762                 0.0809                 0.1020
 IR Inten    --     25.0937                16.6842                 7.9141

                     10                     11                     12
                      A                      A                      A
 Frequencies --    486.7567               740.9997               804.1727
 Red. masses --      4.1012                 5.9260                 1.4759
 Frc consts  --      0.5725                 1.9171                 0.5623
 IR Inten    --      2.6638                80.1336                21.2398

                     13                     14                     15
                      A                      A                      A
 Frequencies --    948.3567              1002.4598              1018.4752
 Red. masses --      1.2370                 1.7170                 2.2062
 Frc consts  --      0.6555                 1.0166                 1.3483
 IR Inten    --      8.0240                 1.8151                66.6937

                     16                     17                     18
                      A                      A                      A
 Frequencies --   1078.5625              1150.2223              1215.7550
 Red. masses --      1.0947                 1.1881                 1.8830
 Frc consts  --      0.7503                 0.9261                 1.6398
 IR Inten    --     91.5871               160.9460               122.3106

                     19                     20                     21
                      A                      A                      A
 Frequencies --   1307.5615              1332.4519              1417.3015
 Red. masses --      1.7138                 1.7780                 1.2456
 Frc consts  --      1.7263                 1.8598                 1.4742
 IR Inten    --     70.3845                13.5070                 0.8461

                     22                     23                     24
                      A                      A                      A
 Frequencies --   1509.3648              1647.2691              1650.2761
 Red. masses --      1.2186                 1.1047                 1.0609
 Frc consts  --      1.6356                 1.7662                 1.7024
 IR Inten    --     10.6813                83.9057                19.8335

                     25                     26                     27
                      A                      A                      A
 Frequencies --   1658.9729              1713.0581              2958.3085
 Red. masses --      5.0931                 5.8039                 1.0835
 Frc consts  --      8.2588                10.0349                 5.5870
 IR Inten    --    727.4851                78.1505               145.9865

                     28                     29                     30
                      A                      A                      A
 Frequencies --   3206.4639              3228.0730              3240.6235
 Red. masses --      1.0797                 1.0903                 1.0855
 Frc consts  --      6.5406                 6.6942                 6.7166
 IR Inten    --   1061.9966                75.5238               356.0839

                     31                     32                     33
                      A                      A                      A
 Frequencies --   3472.2154              3621.0186              3621.6604
 Red. masses --      1.0284                 1.0886                 1.0890
 Frc consts  --      7.3048                 8.4094                 8.4154
 IR Inten    --      1.0829                16.8590                16.9364

 - Thermochemistry -
 -------------------
 Temperature   298.150 Kelvin.  Pressure   1.00000 Atm.
 Atom     1 has atomic number  6 and mass  12.00000

 Molecular mass:    89.04768 amu.
 Principal axes and moments of inertia in atomic units:
                           1         2         3
     Eigenvalues --   235.921761349.897881576.18620
           X            0.99982   0.01905  -0.00000
           Y           -0.01905   0.99982  -0.00000
           Z            0.00000   0.00000   1.00000
 This molecule is an asymmetric top.
 Rotational symmetry number  1.
 Rotational temperatures (Kelvin)      0.36713     0.06416     0.05495
 Rotational constants (GHZ):           7.64974     1.33695     1.14501
 Zero-point vibrational energy     273713.7 (Joules/Mol)
                                   65.41915 (Kcal/Mol)
 Warning -- explicit consideration of  10 degrees of freedom as
           vibrations may cause significant error
 Vibrational temperatures:     71.74    85.28    96.50   258.02   300.27
          (Kelvin)            362.70   367.37   462.01   486.62   700.33
                             1066.13  1157.03  1364.47  1442.32  1465.36
                             1551.81  1654.91  1749.20  1881.29  1917.10
                             2039.18  2171.64  2370.05  2374.38  2386.89
                             2464.71  4256.35  4613.39  4644.48  4662.53
                             4995.74  5209.84  5210.76

 Zero-point correction=                           0.104252 (Hartree/Particle)
 Thermal correction to Energy=                    0.113037
 Thermal correction to Enthalpy=                  0.113981
 Thermal correction to Gibbs Free Energy=         0.069956
 Sum of electronic and zero-point Energies=           -322.781957
 Sum of electronic and thermal Energies=              -322.773172
 Sum of electronic and thermal Enthalpies=            -322.772228
 Sum of electronic and thermal Free Energies=         -322.816253

                     E (Thermal)             CV                S
                      KCal/Mol        Cal/Mol-Kelvin    Cal/Mol-Kelvin
 Total                   70.932             27.518             92.658
 Electronic               0.000              0.000              0.000
 Translational            0.889              2.981             39.372
 Rotational               0.889              2.981             27.709
 Vibrational             69.154             21.556             25.577
 Vibration     1          0.595              1.978              4.823
 Vibration     2          0.597              1.974              4.481
 Vibration     3          0.598              1.970              4.238
 Vibration     4          0.629              1.868              2.335
 Vibration     5          0.642              1.827              2.055
 Vibration     6          0.664              1.759              1.716
 Vibration     7          0.666              1.754              1.693
 Vibration     8          0.707              1.633              1.304
 Vibration     9          0.719              1.599              1.221
 Vibration    10          0.843              1.279              0.692

 ## DEPERTURBED TRANSITIONS MOMENTS ##

 Electric dipole : Fundamental Bands
 ------------------------------------------------------------------------

 ## AFTER VARIATIONAL CORRECTION

 Electric dipole : Fundamental Bands
 ------------------------------------------------------------------------

                           ! Non-Optimized Parameters !
 Normal termination of Gaussian 16 at Sat Mar 22 23:24:09 2025.
