 Gaussian 16, Revision C.01,
 Gaussian 16:  EM64L-G16RevC.01  3-Jul-2019

 ----------------------------------------------
 # MP2/aug-cc-pVDZ opt freq=(vibrot,anharmonic)
 ----------------------------------------------

 ----
 blah
 ----
 Symbolic Z-matrix:
 Charge =  0 Multiplicity = 1

 SCF Done:  E(RHF) =  -341.702946850     A.U. after   15 cycles
 E2 =    -0.1024487562D+01 EUMP2 =    -0.34272743441276D+03
 SCF Done:  E(RHF) =  -341.703728617     A.U. after   14 cycles
 E2 =    -0.1026455276D+01 EUMP2 =    -0.34273018389205D+03
 SCF Done:  E(RHF) =  -341.700597576     A.U. after   15 cycles
 E2 =    -0.1027707724D+01 EUMP2 =    -0.34272830529936D+03
 SCF Done:  E(RHF) =  -341.703957086     A.U. after   14 cycles
 E2 =    -0.1026404637D+01 EUMP2 =    -0.34273036172225D+03
 SCF Done:  E(RHF) =  -341.704887756     A.U. after   14 cycles
 E2 =    -0.1025920382D+01 EUMP2 =    -0.34273080813849D+03
 SCF Done:  E(RHF) =  -341.705177249     A.U. after   13 cycles
 E2 =    -0.1025822371D+01 EUMP2 =    -0.34273099962033D+03
 SCF Done:  E(RHF) =  -341.705244817     A.U. after   13 cycles
 E2 =    -0.1025590128D+01 EUMP2 =    -0.34273083494451D+03
 SCF Done:  E(RHF) =  -341.705806326     A.U. after   13 cycles
 E2 =    -0.1025257666D+01 EUMP2 =    -0.34273106399167D+03
 SCF Done:  E(RHF) =  -341.705576552     A.U. after   12 cycles
 E2 =    -0.1025533733D+01 EUMP2 =    -0.34273111028543D+03
 SCF Done:  E(RHF) =  -341.705425096     A.U. after   12 cycles
 E2 =    -0.1025735141D+01 EUMP2 =    -0.34273116023684D+03
 E2 =    -0.1025818078D+01 EUMP2 =    -0.34273118595424D+03
 E2 =    -0.1025827574D+01 EUMP2 =    -0.34273120647149D+03
 E2 =    -0.1025822538D+01 EUMP2 =    -0.34273122065952D+03
 E2 =    -0.1025887381D+01 EUMP2 =    -0.34273122370814D+03
 E2 =    -0.1025881037D+01 EUMP2 =    -0.34273122516637D+03
 E2 =    -0.1025901490D+01 EUMP2 =    -0.34273122549451D+03
 Optimization completed.
    -- Stationary point found.
 Normal termination of Gaussian 16 at Sat Mar 22 09:16:23 2025.

 ----------------------------------------------------------------------
 #N Geom=AllCheck Guess=TCheck SCRF=Check GenChk RMP2(FC)/Aug-CC-pVDZ F
 req
 ----------------------------------------------------------------------

 Structure from the checkpoint file:  "/scr/Gau-80908.chk"
 ----
 blah
 ----
 Charge =  0 Multiplicity = 1

                         Standard orientation:
 ---------------------------------------------------------------------
 Center     Atomic      Atomic             Coordinates (Angstroms)
 Number     Number       Type             X           Y           Z
 ---------------------------------------------------------------------
      1          6           0       -0.107452    0.789200    0.000250
      2          6           0        1.235023    1.038941   -0.000026
      3          1           0       -0.816560    1.627214    0.000354
      4          8           0       -0.647045   -0.443398    0.000463
      5          6           0        2.300283    0.027503   -0.000280
      6          1           0       -1.622316   -0.352090    0.000167
      7          8           0        2.140466   -1.196572   -0.000003
      8          1           0        1.534764    2.089770   -0.000105
      9          1           0        3.333736    0.451768   -0.000807
     10          8           0       -3.401449   -0.109979   -0.000276
     11          1           0       -3.866054   -0.475535   -0.765390
     12          1           0       -3.866476   -0.475396    0.764647
 ---------------------------------------------------------------------

 E2 =    -0.1025901480D+01 EUMP2 =    -0.34273122548436D+03
 E2 =    -0.1025901480D+01 EUMP2 =    -0.34273122548436D+03
 E2 =    -0.1025901652D+01 EUMP2 =    -0.34273122547556D+03
 E2 =    -0.1025901652D+01 EUMP2 =    -0.34273122547556D+03
 SCF Done:  E(RHF) =  -341.705129348     A.U. after    9 cycles
 E2 =    -0.1026029246D+01 EUMP2 =    -0.34273115859390D+03
 E2 =    -0.1026029246D+01 EUMP2 =    -0.34273115859390D+03
 SCF Done:  E(RHF) =  -341.705380800     A.U. after    9 cycles
 E2 =    -0.1025775297D+01 EUMP2 =    -0.34273115609763D+03
 E2 =    -0.1025775297D+01 EUMP2 =    -0.34273115609763D+03
 SCF Done:  E(RHF) =  -341.705447451     A.U. after   10 cycles
 E2 =    -0.1025705895D+01 EUMP2 =    -0.34273115334614D+03
 E2 =    -0.1025705895D+01 EUMP2 =    -0.34273115334614D+03
 SCF Done:  E(RHF) =  -341.705058942     A.U. after   10 cycles
 E2 =    -0.1026096972D+01 EUMP2 =    -0.34273115591364D+03
 E2 =    -0.1026096972D+01 EUMP2 =    -0.34273115591364D+03
 SCF Done:  E(RHF) =  -341.704659714     A.U. after   10 cycles
 E2 =    -0.1026481894D+01 EUMP2 =    -0.34273114160815D+03
 E2 =    -0.1026481894D+01 EUMP2 =    -0.34273114160815D+03
 SCF Done:  E(RHF) =  -341.705813965     A.U. after   10 cycles
 E2 =    -0.1025323141D+01 EUMP2 =    -0.34273113710610D+03
 E2 =    -0.1025323141D+01 EUMP2 =    -0.34273113710610D+03
 SCF Done:  E(RHF) =  -341.704626008     A.U. after    9 cycles
 E2 =    -0.1026503864D+01 EUMP2 =    -0.34273112987212D+03
 E2 =    -0.1026503864D+01 EUMP2 =    -0.34273112987212D+03
 SCF Done:  E(RHF) =  -341.705824740     A.U. after    9 cycles
 E2 =    -0.1025302019D+01 EUMP2 =    -0.34273112675884D+03
 E2 =    -0.1025302019D+01 EUMP2 =    -0.34273112675884D+03
 SCF Done:  E(RHF) =  -341.705220945     A.U. after    8 cycles
 E2 =    -0.1025900755D+01 EUMP2 =    -0.34273112170084D+03
 E2 =    -0.1025900755D+01 EUMP2 =    -0.34273112170084D+03
 SCF Done:  E(RHF) =  -341.705220924     A.U. after    8 cycles
 E2 =    -0.1025900782D+01 EUMP2 =    -0.34273112170574D+03
 E2 =    -0.1025900782D+01 EUMP2 =    -0.34273112170574D+03

 Alpha  occ. eigenvalues --  -20.62905 -20.59816 -20.53466 -11.33376 -11.32267
 Alpha  occ. eigenvalues --  -11.22550  -1.41459  -1.40117  -1.34987  -1.04441
 Alpha  occ. eigenvalues --   -0.87777  -0.76501  -0.76084  -0.74288  -0.65098
 Alpha  occ. eigenvalues --   -0.62955  -0.62534  -0.57710  -0.56981  -0.55606
 Alpha  occ. eigenvalues --   -0.53355  -0.49968  -0.39897  -0.34124
 Alpha virt. eigenvalues --    0.01702   0.04034   0.04624   0.05267   0.07125
 Alpha virt. eigenvalues --    0.07201   0.08568   0.11708   0.12441   0.13971
 Alpha virt. eigenvalues --    0.15083   0.15110   0.15687   0.15990   0.16797

 Mulliken charges:
               1
     1  C    0.829441
     2  C    0.473799
     3  H   -0.422694
     4  O   -0.534888
     5  C    0.607666
     6  H    0.238416
     7  O   -0.545803
     8  H   -0.480858
     9  H   -0.146142
    10  O   -0.335517
    11  H    0.149128
    12  H    0.167454
 Sum of Mulliken charges =  -0.00000

 Dipole moment (field-independent basis, Debye):
    X=             -5.7024    Y=              2.1167    Z=              0.0146  Tot=              6.0826
 Quadrupole moment (field-independent basis, Debye-Ang):
   XX=            -19.7443   YY=            -39.2946   ZZ=            -35.8649
   XY=             10.3673   XZ=             -0.0741   YZ=             -0.0160

  Exact polarizability:      82.630       0.288      58.698      -0.076      -0.041      40.941
 Approx polarizability:      55.733       1.300      49.392      -0.050      -0.038      38.919

                      1                      2                      3
                      A                      A                      A
 Frequencies --     52.1306                53.3847                97.6674
 Red. masses --      4.1408                 4.2128                 1.0674
 Frc consts  --      0.0066                 0.0071                 0.0060
 IR Inten    --     12.9024                 4.0305                47.9165

                      4                      5                      6
                      A                      A                      A
 Frequencies --    142.8208               143.6924               229.3611
 Red. masses --      7.8322                 2.5274                 3.5056
 Frc consts  --      0.0941                 0.0307                 0.1087
 IR Inten    --      1.0600                 0.3748                11.3321

                      7                      8                      9
                      A                      A                      A
 Frequencies --    266.0435               280.2846               398.5609
 Red. masses --      1.1846                 1.4968                 2.3091
 Frc consts  --      0.0494                 0.0693                 0.2161
 IR Inten    --      1.0659               229.1024                30.4942

                     10                     11                     12
                      A                      A                      A
 Frequencies --    460.3394               769.0271               867.0723
 Red. masses --      6.7124                 1.2263                 1.1079
 Frc consts  --      0.8381                 0.4273                 0.4907
 IR Inten    --      4.5296                 8.5917                98.1042

                     13                     14                     15
                      A                      A                      A
 Frequencies --    871.8590               942.1421               951.9952
 Red. masses --      6.1817                 3.7252                 1.3619
 Frc consts  --      2.7686                 1.9482                 0.7272
 IR Inten    --     15.1939                73.6050                 4.5585

                     16                     17                     18
                      A                      A                      A
 Frequencies --   1008.8072              1113.0474              1293.9132
 Red. masses --      1.6290                 1.6397                 1.3367
 Frc consts  --      0.9767                 1.1968                 1.3186
 IR Inten    --      1.3490                18.5314                69.3147

                     19                     20                     21
                      A                      A                      A
 Frequencies --   1389.8040              1417.8755              1457.6652
 Red. masses --      1.3114                 1.1965                 1.7592
 Frc consts  --      1.4924                 1.4172                 2.2024
 IR Inten    --    220.1687                16.4885                11.3267

                     22                     23                     24
                      A                      A                      A
 Frequencies --   1626.8201              1672.0875              1727.2669
 Red. masses --      1.0886                 7.3460                 4.7426
 Frc consts  --      1.6974                12.1010                 8.3365
 IR Inten    --     50.7086               289.3609               181.8772

                     25                     26                     27
                      A                      A                      A
 Frequencies --   2947.0255              3175.2520              3237.9170
 Red. masses --      1.0830                 1.0897                 1.0936
 Frc consts  --      5.5417                 6.4731                 6.7552
 IR Inten    --    171.3823                 9.4119                 7.8392

                     28                     29                     30
                      A                      A                      A
 Frequencies --   3569.5516              3791.8593              3918.6085
 Red. masses --      1.0680                 1.0454                 1.0816
 Frc consts  --      8.0180                 8.8560                 9.7851
 IR Inten    --   1151.0767                14.4821               103.9107

 - Thermochemistry -
 -------------------
 Temperature   298.150 Kelvin.  Pressure   1.00000 Atm.
 Atom     1 has atomic number  6 and mass  12.00000

 Molecular mass:    90.03169 amu.
 Principal axes and moments of inertia in atomic units:
                           1         2         3
     Eigenvalues --   198.053671410.701081600.32937
           X            0.99976   0.02179  -0.00000
           Y           -0.02179   0.99976   0.00001
           Z            0.00000  -0.00001   1.00000
 This molecule is an asymmetric top.
 Rotational symmetry number  1.
 Rotational temperatures (Kelvin)      0.43733     0.06140     0.05412
 Rotational constants (GHZ):           9.11238     1.27932     1.12773
 Zero-point vibrational energy     238498.8 (Joules/Mol)
                                   57.00258 (Kcal/Mol)
 Warning -- explicit consideration of  10 degrees of freedom as
           vibrations may cause significant error
 Vibrational temperatures:     75.00    76.81   140.52   205.49   206.74
          (Kelvin)            330.00   382.78   403.27   573.44   662.33
                             1106.46  1247.52  1254.41  1355.53  1369.71
                             1451.45  1601.43  1861.65  1999.62  2040.01
                             2097.26  2340.63  2405.76  2485.15  4240.11
                             4568.48  4658.64  5135.79  5455.64  5638.00

 Zero-point correction=                           0.090839 (Hartree/Particle)
 Thermal correction to Energy=                    0.099769
 Thermal correction to Enthalpy=                  0.100713
 Thermal correction to Gibbs Free Energy=         0.056413
 Sum of electronic and zero-point Energies=           -342.640386
 Sum of electronic and thermal Energies=              -342.631456
 Sum of electronic and thermal Enthalpies=            -342.630512
 Sum of electronic and thermal Free Energies=         -342.674812

                     E (Thermal)             CV                S
                      KCal/Mol        Cal/Mol-Kelvin    Cal/Mol-Kelvin
 Total                   62.606             27.611             93.237
 Electronic               0.000              0.000              0.000
 Translational            0.889              2.981             39.405
 Rotational               0.889              2.981             27.594
 Vibrational             60.829             21.649             26.238
 Vibration     1          0.596              1.977              4.735
 Vibration     2          0.596              1.976              4.688
 Vibration     3          0.603              1.951              3.500
 Vibration     4          0.616              1.910              2.766
 Vibration     5          0.616              1.909              2.754
 Vibration     6          0.652              1.796              1.884
 Vibration     7          0.672              1.735              1.622
 Vibration     8          0.680              1.710              1.532
 Vibration     9          0.765              1.473              0.968
 Vibration    10          0.818              1.338              0.765

 ## DEPERTURBED TRANSITIONS MOMENTS ##

 Electric dipole : Fundamental Bands
 ------------------------------------------------------------------------

 ## AFTER VARIATIONAL CORRECTION

 Electric dipole : Fundamental Bands
 ------------------------------------------------------------------------

 Optimization completed.
    -- Stationary point found.
 Normal termination of Gaussian 16 at Sat Mar 22 13:21:01 2025.
