 Gaussian 16, Revision C.01,
 Gaussian 16:  EM64L-G16RevC.01  3-Jul-2019

 ----------------------------------------------
 # MP2/aug-cc-pVDZ opt freq=(vibrot,anharmonic)
 ----------------------------------------------

 ----
 blah
 ----
 Symbolic Z-matrix:
 Charge =  0 Multiplicity = 1

 SCF Done:  E(RHF) =  -303.887789281     A.U. after   13 cycles
 E2 =    -0.9023805425D+00 EUMP2 =    -0.30479016982384D+03
 Optimization completed.
    -- Stationary point found.
 Normal termination of Gaussian 16 at Fri Mar 21 06:20:33 2025.

 ----------------------------------------------------------------------
 #N Geom=AllCheck Guess=TCheck SCRF=Check GenChk RMP2(FC)/Aug-CC-pVDZ F
 req
 ----------------------------------------------------------------------

 Structure from the checkpoint file:  "/scr/Gau-6208.chk"
 ----
 blah
 ----
 Charge =  0 Multiplicity = 1

                         Standard orientation:
 ---------------------------------------------------------------------
 Center     Atomic      Atomic             Coordinates (Angstroms)
 Number     Number       Type             X           Y           Z
 ---------------------------------------------------------------------
      1          6           0       -1.001589   -0.096973   -0.000006
      2          8           0       -2.168054   -0.447631   -0.000060
      3          8           0       -0.004407   -1.027932    0.000060
      4          6           0       -0.542678    1.349310    0.000029
      5          1           0        0.871104   -0.588807   -0.000005
      6          1           0       -1.420933    2.005004   -0.000206
      7          1           0        0.075345    1.551583   -0.888370
      8          1           0        0.074881    1.551630    0.888743
      9          8           0        2.601234    0.035582   -0.000024
     10          1           0        3.117541   -0.256668   -0.763748
     11          1           0        3.117483   -0.256922    0.763642
 ---------------------------------------------------------------------

 SCF Done:  E(RHF) =  -303.887789281     A.U. after    1 cycles
 E2 =    -0.9023805454D+00 EUMP2 =    -0.30479016982675D+03
 E2 =    -0.9023805454D+00 EUMP2 =    -0.30479016982675D+03
 SCF Done:  E(RHF) =  -303.887788134     A.U. after    8 cycles
 E2 =    -0.9023816892D+00 EUMP2 =    -0.30479016982329D+03
 E2 =    -0.9023816892D+00 EUMP2 =    -0.30479016982329D+03
 SCF Done:  E(RHF) =  -303.887788137     A.U. after    8 cycles
 E2 =    -0.9023816878D+00 EUMP2 =    -0.30479016982510D+03
 E2 =    -0.9023816878D+00 EUMP2 =    -0.30479016982510D+03
 SCF Done:  E(RHF) =  -303.887787891     A.U. after    9 cycles
 E2 =    -0.9023818979D+00 EUMP2 =    -0.30479016978914D+03
 E2 =    -0.9023818979D+00 EUMP2 =    -0.30479016978914D+03
 SCF Done:  E(RHF) =  -303.887787909     A.U. after    9 cycles
 E2 =    -0.9023818724D+00 EUMP2 =    -0.30479016978182D+03
 E2 =    -0.9023818724D+00 EUMP2 =    -0.30479016978182D+03
 SCF Done:  E(RHF) =  -303.887784008     A.U. after    8 cycles
 E2 =    -0.9023857741D+00 EUMP2 =    -0.30479016978211D+03
 E2 =    -0.9023857741D+00 EUMP2 =    -0.30479016978211D+03
 SCF Done:  E(RHF) =  -303.887794135     A.U. after    8 cycles
 E2 =    -0.9023756505D+00 EUMP2 =    -0.30479016978557D+03
 E2 =    -0.9023756505D+00 EUMP2 =    -0.30479016978557D+03
 SCF Done:  E(RHF) =  -303.887788427     A.U. after    8 cycles
 E2 =    -0.9023813105D+00 EUMP2 =    -0.30479016973780D+03
 E2 =    -0.9023813105D+00 EUMP2 =    -0.30479016973780D+03
 SCF Done:  E(RHF) =  -303.887788448     A.U. after    8 cycles
 E2 =    -0.9023813025D+00 EUMP2 =    -0.30479016975005D+03
 E2 =    -0.9023813025D+00 EUMP2 =    -0.30479016975005D+03
 E2 =    -0.9023943781D+00 EUMP2 =    -0.30479016960344D+03
 SCF Done:  E(RHF) =  -303.887721961     A.U. after    9 cycles
 E2 =    -0.9023801506D+00 EUMP2 =    -0.30479010211138D+03
 E2 =    -0.9023801506D+00 EUMP2 =    -0.30479010211138D+03
 SCF Done:  E(RHF) =  -303.887722039     A.U. after    9 cycles
 E2 =    -0.9023800552D+00 EUMP2 =    -0.30479010209472D+03
 E2 =    -0.9023800552D+00 EUMP2 =    -0.30479010209472D+03
 SCF Done:  E(RHF) =  -303.887661396     A.U. after    9 cycles
 E2 =    -0.9024396668D+00 EUMP2 =    -0.30479010106258D+03
 E2 =    -0.9024396668D+00 EUMP2 =    -0.30479010106258D+03
 SCF Done:  E(RHF) =  -303.887778290     A.U. after    9 cycles
 E2 =    -0.9023207577D+00 EUMP2 =    -0.30479009904753D+03
 E2 =    -0.9023207577D+00 EUMP2 =    -0.30479009904753D+03
 SCF Done:  E(RHF) =  -303.888267701     A.U. after   10 cycles
 E2 =    -0.9018128936D+00 EUMP2 =    -0.30479008059496D+03
 E2 =    -0.9018128936D+00 EUMP2 =    -0.30479008059496D+03
 SCF Done:  E(RHF) =  -303.887134877     A.U. after   10 cycles
 E2 =    -0.9029502394D+00 EUMP2 =    -0.30479008511650D+03
 E2 =    -0.9029502394D+00 EUMP2 =    -0.30479008511649D+03
 SCF Done:  E(RHF) =  -303.887085753     A.U. after    9 cycles
 E2 =    -0.9029887532D+00 EUMP2 =    -0.30479007450618D+03
 E2 =    -0.9029887532D+00 EUMP2 =    -0.30479007450618D+03
 SCF Done:  E(RHF) =  -303.888295762     A.U. after    8 cycles
 E2 =    -0.9017753337D+00 EUMP2 =    -0.30479007109520D+03
 E2 =    -0.9017753337D+00 EUMP2 =    -0.30479007109520D+03
 SCF Done:  E(RHF) =  -303.887686375     A.U. after    8 cycles
 E2 =    -0.9023798155D+00 EUMP2 =    -0.30479006619029D+03
 E2 =    -0.9023798155D+00 EUMP2 =    -0.30479006619029D+03
 SCF Done:  E(RHF) =  -303.887686387     A.U. after    8 cycles
 E2 =    -0.9023798143D+00 EUMP2 =    -0.30479006620139D+03
 E2 =    -0.9023798143D+00 EUMP2 =    -0.30479006620139D+03

 Alpha  occ. eigenvalues --  -20.62796 -20.59556 -20.53912 -11.38272 -11.25193
 Alpha  occ. eigenvalues --   -1.43458  -1.40388  -1.33987  -1.00817  -0.81030
 Alpha  occ. eigenvalues --   -0.76331  -0.70166  -0.65349  -0.63853  -0.62766
 Alpha  occ. eigenvalues --   -0.58013  -0.56091  -0.54637  -0.53178  -0.45594
 Alpha  occ. eigenvalues --   -0.43253
 Alpha virt. eigenvalues --    0.01670   0.04227   0.04457   0.06764   0.06903
 Alpha virt. eigenvalues --    0.07032   0.10636   0.12820   0.12833   0.15026
 Alpha virt. eigenvalues --    0.16223   0.16960   0.17015   0.17783   0.19090

 Mulliken charges:
               1
     1  C    0.703449
     2  O   -0.535680
     3  O   -0.513524
     4  C    0.283836
     5  H    0.234594
     6  H   -0.125800
     7  H   -0.006968
     8  H   -0.006685
     9  O   -0.362758
    10  H    0.155716
    11  H    0.173821
 Sum of Mulliken charges =  -0.00000

 Dipole moment (field-independent basis, Debye):
    X=              6.1863    Y=              1.7771    Z=              0.0153  Tot=              6.4365
 Quadrupole moment (field-independent basis, Debye-Ang):
   XX=            -26.2967   YY=            -33.6996   ZZ=            -28.3630
   XY=             -6.2410   XZ=              0.0616   YZ=             -0.0123

  Exact polarizability:      54.600       0.679      43.959       0.071      -0.030      35.112
 Approx polarizability:      40.356       0.621      33.206       0.052      -0.029      32.048

                      1                      2                      3
                      A                      A                      A
 Frequencies --     35.4158                76.0554                81.0849
 Red. masses --      1.5947                 1.5761                 3.9172
 Frc consts  --      0.0012                 0.0054                 0.0152
 IR Inten    --     19.8344                21.9993                 7.6333

                      4                      5                      6
                      A                      A                      A
 Frequencies --    110.2580               178.7834               265.5474
 Red. masses --      1.1376                 4.7050                 1.1686
 Frc consts  --      0.0081                 0.0886                 0.0485
 IR Inten    --      2.2850                 1.8449                 6.5906

                      7                      8                      9
                      A                      A                      A
 Frequencies --    281.0532               442.7144               577.2593
 Red. masses --      1.2993                 2.8013                 2.5419
 Frc consts  --      0.0605                 0.3235                 0.4991
 IR Inten    --    218.0360                 9.3211                12.4140

                     10                     11                     12
                      A                      A                      A
 Frequencies --    603.7146               851.5729               874.8952
 Red. masses --      5.9772                 1.0508                 5.8767
 Frc consts  --      1.2835                 0.4490                 2.6503
 IR Inten    --      4.0410                75.2958                23.9812

                     13                     14                     15
                      A                      A                      A
 Frequencies --    998.8328              1049.9195              1249.2819
 Red. masses --      1.5204                 1.8045                 2.4417
 Frc consts  --      0.8937                 1.1719                 2.2452
 IR Inten    --     10.7716                 2.1575                67.9291

                     16                     17                     18
                      A                      A                      A
 Frequencies --   1362.3229              1390.3599              1457.4653
 Red. masses --      1.2205                 1.6691                 1.0542
 Frc consts  --      1.3346                 1.9010                 1.3194
 IR Inten    --    209.1827               200.4838                 5.2792

                     19                     20                     21
                      A                      A                      A
 Frequencies --   1476.3993              1628.8845              1800.0439
 Red. masses --      1.0439                 1.0824                 8.5572
 Frc consts  --      1.3406                 1.6920                16.3360
 IR Inten    --      7.0891                63.4867               268.8056

                     22                     23                     24
                      A                      A                      A
 Frequencies --   3079.3828              3165.6493              3213.0798
 Red. masses --      1.0370                 1.0999                 1.1030
 Frc consts  --      5.7936                 6.4941                 6.7094
 IR Inten    --      4.2182                 6.3692                 6.2553

                     25                     26                     27
                      A                      A                      A
 Frequencies --   3586.9394              3789.1468              3915.7390
 Red. masses --      1.0683                 1.0455                 1.0813
 Frc consts  --      8.0984                 8.8440                 9.7684
 IR Inten    --    637.6592                15.3218                99.3824

 - Thermochemistry -
 -------------------
 Temperature   298.150 Kelvin.  Pressure   1.00000 Atm.
 Atom     1 has atomic number  6 and mass  12.00000

 Molecular mass:    78.03169 amu.
 Principal axes and moments of inertia in atomic units:
                           1         2         3
     Eigenvalues --   192.56883 799.33209 972.13858
           X            0.99967  -0.02586  -0.00000
           Y            0.02586   0.99967   0.00000
           Z            0.00000  -0.00000   1.00000
 This molecule is an asymmetric top.
 Rotational symmetry number  1.
 Rotational temperatures (Kelvin)      0.44978     0.10836     0.08910
 Rotational constants (GHZ):           9.37193     2.25781     1.85646
 Zero-point vibrational energy     224549.8 (Joules/Mol)
                                   53.66870 (Kcal/Mol)
 Warning -- explicit consideration of  10 degrees of freedom as
           vibrations may cause significant error
 Vibrational temperatures:     50.96   109.43   116.66   158.64   257.23
          (Kelvin)            382.06   404.37   636.97   830.55   868.61
                             1225.22  1258.78  1437.10  1510.60  1797.44
                             1960.08  2000.42  2096.97  2124.21  2343.60
                             2589.86  4430.55  4554.66  4622.91  5160.81
                             5451.74  5633.88

 Zero-point correction=                           0.085527 (Hartree/Particle)
 Thermal correction to Energy=                    0.093835
 Thermal correction to Enthalpy=                  0.094779
 Thermal correction to Gibbs Free Energy=         0.052039
 Sum of electronic and zero-point Energies=           -304.704643
 Sum of electronic and thermal Energies=              -304.696335
 Sum of electronic and thermal Enthalpies=            -304.695390
 Sum of electronic and thermal Free Energies=         -304.738130

                     E (Thermal)             CV                S
                      KCal/Mol        Cal/Mol-Kelvin    Cal/Mol-Kelvin
 Total                   58.882             25.061             89.954
 Electronic               0.000              0.000              0.000
 Translational            0.889              2.981             38.979
 Rotational               0.889              2.981             26.506
 Vibrational             57.105             19.100             24.469
 Vibration     1          0.594              1.982              5.500
 Vibration     2          0.599              1.965              3.990
 Vibration     3          0.600              1.962              3.864
 Vibration     4          0.606              1.941              3.264
 Vibration     5          0.629              1.868              2.341
 Vibration     6          0.671              1.736              1.625
 Vibration     7          0.681              1.709              1.527
 Vibration     8          0.802              1.377              0.818
 Vibration     9          0.934              1.080              0.490
 Vibration    10          0.962              1.024              0.443

 ## DEPERTURBED TRANSITIONS MOMENTS ##

 Electric dipole : Fundamental Bands
 ------------------------------------------------------------------------

 ## AFTER VARIATIONAL CORRECTION

 Electric dipole : Fundamental Bands
 ------------------------------------------------------------------------

 Optimization completed.
    -- Stationary point found.
 Normal termination of Gaussian 16 at Fri Mar 21 08:31:39 2025.
