 Gaussian 16, Revision C.01,
 Gaussian 16:  EM64L-G16RevC.01  3-Jul-2019

 ----------------------------------------------
 # MP2/aug-cc-pVDZ opt freq=(vibrot,anharmonic)
 ----------------------------------------------

 ----
 blah
 ----
 Symbolic Z-matrix:
 Charge =  0 Multiplicity = 1

 SCF Done:  E(RHF) =  -284.053976068     A.U. after   13 cycles
 E2 =    -0.8847317779D+00 EUMP2 =    -0.28493870784542D+03
 SCF Done:  E(RHF) =  -284.053986323     A.U. after    8 cycles
 E2 =    -0.8847212496D+00 EUMP2 =    -0.28493870757231D+03
 SCF Done:  E(RHF) =  -284.053977575     A.U. after    7 cycles
 E2 =    -0.8847302899D+00 EUMP2 =    -0.28493870786512D+03
 Optimization completed.
    -- Stationary point found.
 Normal termination of Gaussian 16 at Fri Mar 21 06:35:21 2025.

 ----------------------------------------------------------------------
 #N Geom=AllCheck Guess=TCheck SCRF=Check GenChk RMP2(FC)/Aug-CC-pVDZ F
 req
 ----------------------------------------------------------------------

 Structure from the checkpoint file:  "/scr/Gau-9951.chk"
 ----
 blah
 ----
 Charge =  0 Multiplicity = 1

                         Standard orientation:
 ---------------------------------------------------------------------
 Center     Atomic      Atomic             Coordinates (Angstroms)
 Number     Number       Type             X           Y           Z
 ---------------------------------------------------------------------
      1          6           0       -1.009052   -0.103985    0.000621
      2          8           0       -2.178076   -0.452834    0.010260
      3          8           0       -0.009531   -1.021091   -0.011785
      4          6           0       -0.564575    1.349477   -0.003774
      5          1           0        0.878128   -0.578591   -0.011643
      6          1           0       -1.447942    1.996771    0.044371
      7          1           0        0.001644    1.564909   -0.923584
      8          1           0        0.092761    1.550152    0.856542
      9          7           0        2.626648   -0.042809    0.004543
     10          1           0        3.162103   -0.729560   -0.527908
     11          1           0        3.010128   -0.054962    0.950299
     12          1           0        2.859257    0.869398   -0.388761
 ---------------------------------------------------------------------

 SCF Done:  E(RHF) =  -284.053977575     A.U. after    1 cycles
 E2 =    -0.8847302669D+00 EUMP2 =    -0.28493870784219D+03
 E2 =    -0.8847302669D+00 EUMP2 =    -0.28493870784219D+03
 SCF Done:  E(RHF) =  -284.053975973     A.U. after    8 cycles
 E2 =    -0.8847318734D+00 EUMP2 =    -0.28493870784646D+03
 E2 =    -0.8847318734D+00 EUMP2 =    -0.28493870784646D+03
 SCF Done:  E(RHF) =  -284.053976777     A.U. after    8 cycles
 E2 =    -0.8847310747D+00 EUMP2 =    -0.28493870785200D+03
 E2 =    -0.8847310747D+00 EUMP2 =    -0.28493870785200D+03
 SCF Done:  E(RHF) =  -284.053976354     A.U. after    8 cycles
 E2 =    -0.8847314614D+00 EUMP2 =    -0.28493870781567D+03
 E2 =    -0.8847314614D+00 EUMP2 =    -0.28493870781567D+03
 SCF Done:  E(RHF) =  -284.053978240     A.U. after    8 cycles
 E2 =    -0.8847295706D+00 EUMP2 =    -0.28493870781081D+03
 E2 =    -0.8847295706D+00 EUMP2 =    -0.28493870781081D+03
 SCF Done:  E(RHF) =  -284.053985284     A.U. after    7 cycles
 E2 =    -0.8847225016D+00 EUMP2 =    -0.28493870778564D+03
 E2 =    -0.8847225016D+00 EUMP2 =    -0.28493870778564D+03
 SCF Done:  E(RHF) =  -284.053969360     A.U. after    7 cycles
 E2 =    -0.8847384517D+00 EUMP2 =    -0.28493870781185D+03
 E2 =    -0.8847384517D+00 EUMP2 =    -0.28493870781185D+03
 E2 =    -0.8847317007D+00 EUMP2 =    -0.28493870773026D+03
 E2 =    -0.8847317007D+00 EUMP2 =    -0.28493870773026D+03
 E2 =    -0.8847302577D+00 EUMP2 =    -0.28493870773672D+03
 SCF Done:  E(RHF) =  -284.053971632     A.U. after    9 cycles
 E2 =    -0.8846656170D+00 EUMP2 =    -0.28493863724892D+03
 E2 =    -0.8846656170D+00 EUMP2 =    -0.28493863724892D+03
 SCF Done:  E(RHF) =  -284.053844963     A.U. after    9 cycles
 E2 =    -0.8847942803D+00 EUMP2 =    -0.28493863924289D+03
 E2 =    -0.8847942803D+00 EUMP2 =    -0.28493863924289D+03
 SCF Done:  E(RHF) =  -284.053330799     A.U. after   10 cycles
 E2 =    -0.8853043595D+00 EUMP2 =    -0.28493863515813D+03
 E2 =    -0.8853043595D+00 EUMP2 =    -0.28493863515813D+03
 SCF Done:  E(RHF) =  -284.054473456     A.U. after   10 cycles
 E2 =    -0.8841573714D+00 EUMP2 =    -0.28493863082729D+03
 E2 =    -0.8841573714D+00 EUMP2 =    -0.28493863082729D+03
 SCF Done:  E(RHF) =  -284.053470649     A.U. after    8 cycles
 E2 =    -0.8851565986D+00 EUMP2 =    -0.28493862724724D+03
 E2 =    -0.8851565986D+00 EUMP2 =    -0.28493862724724D+03
 SCF Done:  E(RHF) =  -284.054318923     A.U. after    8 cycles
 E2 =    -0.8843063893D+00 EUMP2 =    -0.28493862531221D+03
 E2 =    -0.8843063893D+00 EUMP2 =    -0.28493862531221D+03
 SCF Done:  E(RHF) =  -284.053886001     A.U. after    8 cycles
 E2 =    -0.8847328082D+00 EUMP2 =    -0.28493861880963D+03
 E2 =    -0.8847328082D+00 EUMP2 =    -0.28493861880963D+03
 SCF Done:  E(RHF) =  -284.053892866     A.U. after    8 cycles
 E2 =    -0.8847268095D+00 EUMP2 =    -0.28493861967522D+03
 E2 =    -0.8847268095D+00 EUMP2 =    -0.28493861967522D+03
 SCF Done:  E(RHF) =  -284.053883330     A.U. after    8 cycles
 E2 =    -0.8847363949D+00 EUMP2 =    -0.28493861972481D+03
 E2 =    -0.8847363949D+00 EUMP2 =    -0.28493861972481D+03
 SCF Done:  E(RHF) =  -284.053895178     A.U. after    8 cycles
 E2 =    -0.8847231677D+00 EUMP2 =    -0.28493861834598D+03
 E2 =    -0.8847231677D+00 EUMP2 =    -0.28493861834598D+03

 Alpha  occ. eigenvalues --  -20.58486 -20.53324 -15.60237 -11.37763 -11.25203
 Alpha  occ. eigenvalues --   -1.42639  -1.33255  -1.19264  -1.00603  -0.80254
 Alpha  occ. eigenvalues --   -0.69607  -0.67596  -0.67177  -0.64330  -0.62418
 Alpha  occ. eigenvalues --   -0.58283  -0.54373  -0.53543  -0.48013  -0.44844
 Alpha  occ. eigenvalues --   -0.42688
 Alpha virt. eigenvalues --    0.01732   0.04167   0.04266   0.05333   0.06744
 Alpha virt. eigenvalues --    0.07036   0.08699   0.10912   0.12832   0.13041
 Alpha virt. eigenvalues --    0.14500   0.15746   0.16962   0.17401   0.17419

 Mulliken charges:
               1
     1  C    0.713328
     2  O   -0.551968
     3  O   -0.538587
     4  C    0.307368
     5  H    0.349102
     6  H   -0.147223
     7  H   -0.020840
     8  H   -0.023965
     9  N   -0.212542
    10  H    0.018820
    11  H    0.060091
    12  H    0.046415
 Sum of Mulliken charges =  -0.00000

 Dipole moment (field-independent basis, Debye):
    X=              6.4569    Y=              2.8833    Z=              0.0117  Tot=              7.0715
 Quadrupole moment (field-independent basis, Debye-Ang):
   XX=            -28.7231   YY=            -32.9933   ZZ=            -30.2730
   XY=             -3.0710   XZ=              0.0926   YZ=             -0.0074

  Exact polarizability:      62.327       1.237      47.774      -0.055       0.031      37.976
 Approx polarizability:      44.229       1.077      37.512      -0.065       0.007      34.921

                      1                      2                      3
                      A                      A                      A
 Frequencies --     17.3518                75.4079                88.1187
 Red. masses --      1.0471                 4.1438                 2.9066
 Frc consts  --      0.0002                 0.0139                 0.0133
 IR Inten    --      0.2642                 0.1202                 0.9911

                      4                      5                      6
                      A                      A                      A
 Frequencies --    131.7953               204.8091               282.6409
 Red. masses --      1.0561                 4.7031                 1.1839
 Frc consts  --      0.0108                 0.1162                 0.0557
 IR Inten    --      0.1454                 6.4016                15.6117

                      7                      8                      9
                      A                      A                      A
 Frequencies --    318.9704               451.5676               580.1665
 Red. masses --      1.2421                 2.7795                 2.5664
 Frc consts  --      0.0745                 0.3339                 0.5089
 IR Inten    --     25.8838                 6.0627                 9.9538

                     10                     11                     12
                      A                      A                      A
 Frequencies --    610.4395               880.5554               962.3536
 Red. masses --      5.9401                 5.8172                 1.0516
 Frc consts  --      1.3041                 2.6575                 0.5738
 IR Inten    --      5.5187                17.1262                72.7950

                     13                     14                     15
                      A                      A                      A
 Frequencies --   1000.5850              1051.0916              1144.2693
 Red. masses --      1.5231                 1.7963                 1.1852
 Frc consts  --      0.8984                 1.1692                 0.9143
 IR Inten    --     12.6058                 0.8973               156.8203

                     16                     17                     18
                      A                      A                      A
 Frequencies --   1268.4743              1378.5800              1433.4291
 Red. masses --      2.8362                 1.4352                 1.2540
 Frc consts  --      2.6888                 1.6070                 1.5182
 IR Inten    --    120.0904                31.1162               337.3747

                     19                     20                     21
                      A                      A                      A
 Frequencies --   1464.3062              1476.6257              1646.9758
 Red. masses --      1.0782                 1.0452                 1.0614
 Frc consts  --      1.3622                 1.3428                 1.6964
 IR Inten    --     28.3333                 7.0867                13.6900

                     22                     23                     24
                      A                      A                      A
 Frequencies --   1649.1608              1793.3213              3074.4548
 Red. masses --      1.0621                 7.6649                 1.0371
 Frc consts  --      1.7020                14.5236                 5.7755
 IR Inten    --     17.4553               279.9271                 6.5666

                     25                     26                     27
                      A                      A                      A
 Frequencies --   3161.3108              3209.2802              3327.7140
 Red. masses --      1.1001                 1.1024                 1.0722
 Frc consts  --      6.4778                 6.6899                 6.9954
 IR Inten    --      8.6033                 7.9162              1150.4284

                     28                     29                     30
                      A                      A                      A
 Frequencies --   3474.2780              3620.8893              3625.2201
 Red. masses --      1.0285                 1.0885                 1.0888
 Frc consts  --      7.3142                 8.4087                 8.4307
 IR Inten    --      3.2669                16.9750                14.6087

 - Thermochemistry -
 -------------------
 Temperature   298.150 Kelvin.  Pressure   1.00000 Atm.
 Atom     1 has atomic number  6 and mass  12.00000

 Molecular mass:    77.04768 amu.
 Principal axes and moments of inertia in atomic units:
                           1         2         3
     Eigenvalues --   196.92624 789.00835 964.87355
           X            0.99987  -0.01632   0.00041
           Y            0.01632   0.99987  -0.00055
           Z           -0.00040   0.00056   1.00000
 This molecule is an asymmetric top.
 Rotational symmetry number  1.
 Rotational temperatures (Kelvin)      0.43983     0.10978     0.08977
 Rotational constants (GHZ):           9.16455     2.28735     1.87044
 Zero-point vibrational energy     259614.4 (Joules/Mol)
                                   62.04934 (Kcal/Mol)
 Warning -- explicit consideration of  10 degrees of freedom as
           vibrations may cause significant error
 Vibrational temperatures:     24.97   108.50   126.78   189.62   294.67
          (Kelvin)            406.66   458.93   649.71   834.73   878.29
                             1266.92  1384.61  1439.62  1512.29  1646.35
                             1825.05  1983.47  2062.38  2106.81  2124.54
                             2369.63  2372.77  2580.19  4423.45  4548.42
                             4617.44  4787.84  4998.71  5209.65  5215.88

 Zero-point correction=                           0.098882 (Hartree/Particle)
 Thermal correction to Energy=                    0.107050
 Thermal correction to Enthalpy=                  0.107994
 Thermal correction to Gibbs Free Energy=         0.065131
 Sum of electronic and zero-point Energies=           -284.839826
 Sum of electronic and thermal Energies=              -284.831658
 Sum of electronic and thermal Enthalpies=            -284.830714
 Sum of electronic and thermal Free Energies=         -284.873577

                     E (Thermal)             CV                S
                      KCal/Mol        Cal/Mol-Kelvin    Cal/Mol-Kelvin
 Total                   67.175             24.956             90.214
 Electronic               0.000              0.000              0.000
 Translational            0.889              2.981             38.941
 Rotational               0.889              2.981             26.508
 Vibrational             65.397             18.994             24.765
 Vibration     1          0.593              1.986              6.916
 Vibration     2          0.599              1.965              4.007
 Vibration     3          0.601              1.958              3.701
 Vibration     4          0.612              1.922              2.920
 Vibration     5          0.640              1.833              2.089
 Vibration     6          0.682              1.706              1.518
 Vibration     7          0.705              1.637              1.315
 Vibration     8          0.810              1.357              0.791
 Vibration     9          0.937              1.074              0.485
 Vibration    10          0.969              1.010              0.432

 ## DEPERTURBED TRANSITIONS MOMENTS ##

 Electric dipole : Fundamental Bands
 ------------------------------------------------------------------------

 ## AFTER VARIATIONAL CORRECTION

 Electric dipole : Fundamental Bands
 ------------------------------------------------------------------------

 Optimization completed.
    -- Stationary point found.
 Normal termination of Gaussian 16 at Fri Mar 21 09:39:33 2025.
