 Gaussian 16, Revision C.01,
 Gaussian 16:  EM64L-G16RevC.01  3-Jul-2019

 ----------------------------------------------
 # MP2/aug-cc-pVDZ opt freq=(vibrot,anharmonic)
 ----------------------------------------------

 ----
 blah
 ----
 Symbolic Z-matrix:
 Charge =  0 Multiplicity = 1

 SCF Done:  E(RHF) =  -264.838822302     A.U. after   13 cycles
 E2 =    -0.7557233077D+00 EUMP2 =    -0.26559454560994D+03
 Optimization completed.
    -- Stationary point found.
 Normal termination of Gaussian 16 at Fri Mar 21 06:51:42 2025.

 ----------------------------------------------------------------------
 #N Geom=AllCheck Guess=TCheck SCRF=Check GenChk RMP2(FC)/Aug-CC-pVDZ F
 req
 ----------------------------------------------------------------------

 Structure from the checkpoint file:  "/scr/Gau-36182.chk"
 ----
 blah
 ----
 Charge =  0 Multiplicity = 1

                         Standard orientation:
 ---------------------------------------------------------------------
 Center     Atomic      Atomic             Coordinates (Angstroms)
 Number     Number       Type             X           Y           Z
 ---------------------------------------------------------------------
      1          6           0        1.031435   -0.298081   -0.000346
      2          8           0        2.239233   -0.176894    0.000708
      3          8           0        0.183566    0.757141   -0.000758
      4          1           0       -0.737312    0.418420   -0.001617
      5          8           0       -2.423863   -0.239604    0.000331
      6          1           0        0.514666   -1.280233   -0.001037
      7          1           0       -2.976279   -0.034118    0.766542
      8          1           0       -2.981169   -0.040720   -0.764056
 ---------------------------------------------------------------------

 SCF Done:  E(RHF) =  -264.838822302     A.U. after    1 cycles
 E2 =    -0.7557233077D+00 EUMP2 =    -0.26559454560997D+03
 E2 =    -0.7557233077D+00 EUMP2 =    -0.26559454560997D+03
 SCF Done:  E(RHF) =  -264.838822978     A.U. after    8 cycles
 E2 =    -0.7557226059D+00 EUMP2 =    -0.26559454558362D+03
 E2 =    -0.7557226059D+00 EUMP2 =    -0.26559454558362D+03
 SCF Done:  E(RHF) =  -264.838820976     A.U. after    8 cycles
 E2 =    -0.7557245910D+00 EUMP2 =    -0.26559454556735D+03
 E2 =    -0.7557245910D+00 EUMP2 =    -0.26559454556735D+03
 SCF Done:  E(RHF) =  -264.838820667     A.U. after    9 cycles
 E2 =    -0.7557248630D+00 EUMP2 =    -0.26559454552975D+03
 E2 =    -0.7557248630D+00 EUMP2 =    -0.26559454552975D+03
 SCF Done:  E(RHF) =  -264.838820711     A.U. after    9 cycles
 E2 =    -0.7557248633D+00 EUMP2 =    -0.26559454557477D+03
 E2 =    -0.7557248633D+00 EUMP2 =    -0.26559454557477D+03
 SCF Done:  E(RHF) =  -264.838820872     A.U. after    9 cycles
 E2 =    -0.7557247437D+00 EUMP2 =    -0.26559454561573D+03
 E2 =    -0.7557247437D+00 EUMP2 =    -0.26559454561573D+03
 SCF Done:  E(RHF) =  -264.838820787     A.U. after    9 cycles
 E2 =    -0.7557246613D+00 EUMP2 =    -0.26559454544784D+03
 E2 =    -0.7557246613D+00 EUMP2 =    -0.26559454544784D+03
 SCF Done:  E(RHF) =  -264.838807048     A.U. after    8 cycles
 E2 =    -0.7557383607D+00 EUMP2 =    -0.26559454540900D+03
 E2 =    -0.7557383607D+00 EUMP2 =    -0.26559454540900D+03
 SCF Done:  E(RHF) =  -264.838836422     A.U. after    8 cycles
 E2 =    -0.7557088874D+00 EUMP2 =    -0.26559454530940D+03
 E2 =    -0.7557088874D+00 EUMP2 =    -0.26559454530940D+03
 E2 =    -0.7557368933D+00 EUMP2 =    -0.26559454528303D+03
 SCF Done:  E(RHF) =  -264.839172479     A.U. after   10 cycles
 E2 =    -0.7553512260D+00 EUMP2 =    -0.26559452370544D+03
 E2 =    -0.7553512260D+00 EUMP2 =    -0.26559452370544D+03
 SCF Done:  E(RHF) =  -264.838427991     A.U. after   10 cycles
 E2 =    -0.7560960658D+00 EUMP2 =    -0.26559452405688D+03
 E2 =    -0.7560960658D+00 EUMP2 =    -0.26559452405688D+03
 SCF Done:  E(RHF) =  -264.838902001     A.U. after    9 cycles
 E2 =    -0.7555796089D+00 EUMP2 =    -0.26559448160942D+03
 E2 =    -0.7555796089D+00 EUMP2 =    -0.26559448160942D+03
 SCF Done:  E(RHF) =  -264.838614702     A.U. after    9 cycles
 E2 =    -0.7558696885D+00 EUMP2 =    -0.26559448439046D+03
 E2 =    -0.7558696885D+00 EUMP2 =    -0.26559448439046D+03
 SCF Done:  E(RHF) =  -264.839290889     A.U. after   10 cycles
 E2 =    -0.7551667390D+00 EUMP2 =    -0.26559445762823D+03
 E2 =    -0.7551667390D+00 EUMP2 =    -0.26559445762823D+03
 SCF Done:  E(RHF) =  -264.838180805     A.U. after   10 cycles
 E2 =    -0.7562815823D+00 EUMP2 =    -0.26559446238699D+03
 E2 =    -0.7562815823D+00 EUMP2 =    -0.26559446238699D+03
 SCF Done:  E(RHF) =  -264.838120572     A.U. after    9 cycles
 E2 =    -0.7563290049D+00 EUMP2 =    -0.26559444957671D+03
 E2 =    -0.7563290049D+00 EUMP2 =    -0.26559444957671D+03
 SCF Done:  E(RHF) =  -264.839326499     A.U. after    9 cycles
 E2 =    -0.7551205397D+00 EUMP2 =    -0.26559444703854D+03
 E2 =    -0.7551205397D+00 EUMP2 =    -0.26559444703854D+03
 SCF Done:  E(RHF) =  -264.838719600     A.U. after    8 cycles
 E2 =    -0.7557219889D+00 EUMP2 =    -0.26559444158902D+03
 E2 =    -0.7557219889D+00 EUMP2 =    -0.26559444158902D+03
 SCF Done:  E(RHF) =  -264.838718503     A.U. after    8 cycles
 E2 =    -0.7557231941D+00 EUMP2 =    -0.26559444169682D+03
 E2 =    -0.7557231941D+00 EUMP2 =    -0.26559444169682D+03

 Alpha  occ. eigenvalues --  -20.63253 -20.60617 -20.55238 -11.38856  -1.44341
 Alpha  occ. eigenvalues --   -1.40869  -1.35213  -0.84474  -0.77056  -0.76879
 Alpha  occ. eigenvalues --   -0.64958  -0.64558  -0.60500  -0.58050  -0.55379
 Alpha  occ. eigenvalues --   -0.46549  -0.44552
 Alpha virt. eigenvalues --    0.01508   0.04297   0.05149   0.06594   0.10235
 Alpha virt. eigenvalues --    0.11593   0.13611   0.15867   0.17564   0.17788
 Alpha virt. eigenvalues --    0.20080   0.20300   0.21860   0.23839   0.23939

 Mulliken charges:
               1
     1  C    0.843725
     2  O   -0.471393
     3  O   -0.446815
     4  H    0.250370
     5  O   -0.343842
     6  H   -0.153610
     7  H    0.151772
     8  H    0.169793
 Sum of Mulliken charges =  -0.00000

 Dipole moment (field-independent basis, Debye):
    X=             -6.5610    Y=             -0.8763    Z=             -0.0164  Tot=              6.6192
 Quadrupole moment (field-independent basis, Debye-Ang):
   XX=            -20.1677   YY=            -26.5121   ZZ=            -21.9683
   XY=             -2.0633   XZ=              0.0604   YZ=              0.0113

  Exact polarizability:      43.978      -1.110      29.958       0.086      -0.015      24.858
 Approx polarizability:      30.795      -0.456      23.072       0.067      -0.011      21.891

                      1                      2                      3
                      A                      A                      A
 Frequencies --     71.6016                90.4568               109.6736
 Red. masses --      4.3584                 1.3943                 1.4813
 Frc consts  --      0.0132                 0.0067                 0.0105
 IR Inten    --      5.1426                 8.5652                48.2482

                      4                      5                      6
                      A                      A                      A
 Frequencies --    192.6922               256.0062               283.3315
 Red. masses --      3.4483                 1.4902                 1.2107
 Frc consts  --      0.0754                 0.0575                 0.0573
 IR Inten    --     10.0268               221.2982                21.3871

                      7                      8                      9
                      A                      A                      A
 Frequencies --    668.7271               877.7741              1031.8544
 Red. masses --      7.4422                 1.0490                 1.6807
 Frc consts  --      1.9609                 0.4762                 1.0543
 IR Inten    --      2.0237                86.3505                 0.2637

                     10                     11                     12
                      A                      A                      A
 Frequencies --   1148.9223              1372.2725              1407.2484
 Red. masses --      3.9456                 1.2925                 1.1600
 Frc consts  --      3.0686                 1.4341                 1.3535
 IR Inten    --    114.1824               245.0605                19.6628

                     13                     14                     15
                      A                      A                      A
 Frequencies --   1626.7194              1793.2122              3043.5614
 Red. masses --      1.0842                 7.4544                 1.0892
 Frc consts  --      1.6904                14.1230                 5.9448
 IR Inten    --     53.7256               325.8149                61.7893

                     16                     17                     18
                      A                      A                      A
 Frequencies --   3558.5693              3794.3829              3922.0361
 Red. masses --      1.0679                 1.0454                 1.0817
 Frc consts  --      7.9676                 8.8674                 9.8032
 IR Inten    --    776.5231                14.9878               105.0532

 - Thermochemistry -
 -------------------
 Temperature   298.150 Kelvin.  Pressure   1.00000 Atm.
 Atom     1 has atomic number  6 and mass  12.00000

 Molecular mass:    64.01604 amu.
 Principal axes and moments of inertia in atomic units:
                           1         2         3
     Eigenvalues --    52.31727 738.39990 782.28549
           X            0.99999  -0.00337  -0.00002
           Y            0.00337   0.99999   0.00045
           Z            0.00001  -0.00045   1.00000
 This molecule is an asymmetric top.
 Rotational symmetry number  1.
 Rotational temperatures (Kelvin)      1.65555     0.11730     0.11072
 Rotational constants (GHZ):          34.49609     2.44412     2.30701
 Zero-point vibrational energy     151022.8 (Joules/Mol)
                                   36.09532 (Kcal/Mol)
 Warning -- explicit consideration of   6 degrees of freedom as
           vibrations may cause significant error
 Vibrational temperatures:    103.02   130.15   157.80   277.24   368.34
          (Kelvin)            407.65   962.15  1262.92  1484.61  1653.04
                             1974.39  2024.72  2340.49  2580.03  4379.01
                             5119.99  5459.27  5642.94

 Zero-point correction=                           0.057522 (Hartree/Particle)
 Thermal correction to Energy=                    0.064363
 Thermal correction to Enthalpy=                  0.065307
 Thermal correction to Gibbs Free Energy=         0.027096
 Sum of electronic and zero-point Energies=           -265.537024
 Sum of electronic and thermal Energies=              -265.530182
 Sum of electronic and thermal Enthalpies=            -265.529238
 Sum of electronic and thermal Free Energies=         -265.567449

                     E (Thermal)             CV                S
                      KCal/Mol        Cal/Mol-Kelvin    Cal/Mol-Kelvin
 Total                   40.389             19.433             80.422
 Electronic               0.000              0.000              0.000
 Translational            0.889              2.981             38.388
 Rotational               0.889              2.981             24.917
 Vibrational             38.611             13.471             17.117
 Vibration     1          0.598              1.968              4.109
 Vibration     2          0.602              1.956              3.650
 Vibration     3          0.606              1.941              3.275
 Vibration     4          0.635              1.850              2.202
 Vibration     5          0.666              1.753              1.689
 Vibration     6          0.682              1.705              1.513

 ## DEPERTURBED TRANSITIONS MOMENTS ##

 Electric dipole : Fundamental Bands
 ------------------------------------------------------------------------

 ## AFTER VARIATIONAL CORRECTION

 Electric dipole : Fundamental Bands
 ------------------------------------------------------------------------

                           ! Non-Optimized Parameters !
 Normal termination of Gaussian 16 at Fri Mar 21 07:25:49 2025.
