 Gaussian 16, Revision C.01,
 Gaussian 16:  EM64L-G16RevC.01  3-Jul-2019

 ----------------------------------------------
 # MP2/aug-cc-pVDZ opt freq=(vibrot,anharmonic)
 ----------------------------------------------

 ----
 blah
 ----
 Symbolic Z-matrix:
 Charge =  0 Multiplicity = 1

 SCF Done:  E(RHF) =  -245.005384259     A.U. after   13 cycles
 E2 =    -0.7380315303D+00 EUMP2 =    -0.24574341578921D+03
 SCF Done:  E(RHF) =  -245.005384496     A.U. after    7 cycles
 E2 =    -0.7380312740D+00 EUMP2 =    -0.24574341577050D+03
 SCF Done:  E(RHF) =  -245.005384218     A.U. after    8 cycles
 E2 =    -0.7380315733D+00 EUMP2 =    -0.24574341579173D+03
 Optimization completed.
    -- Stationary point found.
 Normal termination of Gaussian 16 at Fri Mar 21 06:35:03 2025.

 ----------------------------------------------------------------------
 #N Geom=AllCheck Guess=TCheck SCRF=Check GenChk RMP2(FC)/Aug-CC-pVDZ F
 req
 ----------------------------------------------------------------------

 Structure from the checkpoint file:  "/scr/Gau-35736.chk"
 ----
 blah
 ----
 Charge =  0 Multiplicity = 1

                         Standard orientation:
 ---------------------------------------------------------------------
 Center     Atomic      Atomic             Coordinates (Angstroms)
 Number     Number       Type             X           Y           Z
 ---------------------------------------------------------------------
      1          6           0        1.055844   -0.296227    0.000049
      2          8           0        2.264187   -0.158605    0.000014
      3          8           0        0.186970    0.732120   -0.000120
      4          1           0       -0.740281    0.370214   -0.000080
      5          7           0       -2.462421   -0.164692   -0.000040
      6          1           0       -3.040657    0.675666   -0.035995
      7          1           0       -2.751051   -0.674725    0.835232
      8          1           0       -2.739032   -0.736269   -0.798716
      9          1           0        0.563646   -1.292800    0.000392
 ---------------------------------------------------------------------

 SCF Done:  E(RHF) =  -245.005384218     A.U. after    1 cycles
 E2 =    -0.7380315738D+00 EUMP2 =    -0.24574341579223D+03
 E2 =    -0.7380315738D+00 EUMP2 =    -0.24574341579223D+03
 SCF Done:  E(RHF) =  -245.005383124     A.U. after    8 cycles
 E2 =    -0.7380326774D+00 EUMP2 =    -0.24574341580152D+03
 E2 =    -0.7380326774D+00 EUMP2 =    -0.24574341580152D+03
 SCF Done:  E(RHF) =  -245.005383139     A.U. after    8 cycles
 E2 =    -0.7380326330D+00 EUMP2 =    -0.24574341577239D+03
 E2 =    -0.7380326330D+00 EUMP2 =    -0.24574341577239D+03
 SCF Done:  E(RHF) =  -245.005379783     A.U. after    7 cycles
 E2 =    -0.7380359553D+00 EUMP2 =    -0.24574341573836D+03
 E2 =    -0.7380359553D+00 EUMP2 =    -0.24574341573836D+03
 SCF Done:  E(RHF) =  -245.005388016     A.U. after    7 cycles
 E2 =    -0.7380277332D+00 EUMP2 =    -0.24574341574935D+03
 E2 =    -0.7380277332D+00 EUMP2 =    -0.24574341574935D+03
 SCF Done:  E(RHF) =  -245.005383426     A.U. after    9 cycles
 E2 =    -0.7380322881D+00 EUMP2 =    -0.24574341571428D+03
 E2 =    -0.7380322881D+00 EUMP2 =    -0.24574341571428D+03
 SCF Done:  E(RHF) =  -245.005383455     A.U. after    9 cycles
 E2 =    -0.7380322378D+00 EUMP2 =    -0.24574341569247D+03
 E2 =    -0.7380322378D+00 EUMP2 =    -0.24574341569247D+03
 E2 =    -0.7380528913D+00 EUMP2 =    -0.24574341545492D+03
 E2 =    -0.7380528913D+00 EUMP2 =    -0.24574341545492D+03
 E2 =    -0.7380104673D+00 EUMP2 =    -0.24574341546903D+03
 SCF Done:  E(RHF) =  -245.005493619     A.U. after    9 cycles
 E2 =    -0.7378593122D+00 EUMP2 =    -0.24574335293141D+03
 E2 =    -0.7378593122D+00 EUMP2 =    -0.24574335293141D+03
 SCF Done:  E(RHF) =  -245.005148900     A.U. after    9 cycles
 E2 =    -0.7382065788D+00 EUMP2 =    -0.24574335547882D+03
 E2 =    -0.7382065788D+00 EUMP2 =    -0.24574335547882D+03
 SCF Done:  E(RHF) =  -245.005864476     A.U. after   10 cycles
 E2 =    -0.7374770943D+00 EUMP2 =    -0.24574334157041D+03
 E2 =    -0.7374770943D+00 EUMP2 =    -0.24574334157041D+03
 SCF Done:  E(RHF) =  -245.004759253     A.U. after   10 cycles
 E2 =    -0.7385866762D+00 EUMP2 =    -0.24574334592935D+03
 E2 =    -0.7385866762D+00 EUMP2 =    -0.24574334592935D+03
 SCF Done:  E(RHF) =  -245.004873186     A.U. after    8 cycles
 E2 =    -0.7384619685D+00 EUMP2 =    -0.24574333515499D+03
 E2 =    -0.7384619685D+00 EUMP2 =    -0.24574333515499D+03
 SCF Done:  E(RHF) =  -245.005729558     A.U. after    8 cycles
 E2 =    -0.7376035586D+00 EUMP2 =    -0.24574333311700D+03
 E2 =    -0.7376035586D+00 EUMP2 =    -0.24574333311700D+03
 SCF Done:  E(RHF) =  -245.005303379     A.U. after    8 cycles
 E2 =    -0.7380245049D+00 EUMP2 =    -0.24574332788398D+03
 E2 =    -0.7380245049D+00 EUMP2 =    -0.24574332788398D+03
 SCF Done:  E(RHF) =  -245.005288635     A.U. after    8 cycles
 E2 =    -0.7380377375D+00 EUMP2 =    -0.24574332637294D+03
 E2 =    -0.7380377375D+00 EUMP2 =    -0.24574332637294D+03
 SCF Done:  E(RHF) =  -245.005295982     A.U. after    8 cycles
 E2 =    -0.7380309209D+00 EUMP2 =    -0.24574332690242D+03
 E2 =    -0.7380309209D+00 EUMP2 =    -0.24574332690242D+03
 SCF Done:  E(RHF) =  -245.005295682     A.U. after    8 cycles
 E2 =    -0.7380312322D+00 EUMP2 =    -0.24574332691467D+03
 E2 =    -0.7380312322D+00 EUMP2 =    -0.24574332691467D+03

 Alpha  occ. eigenvalues --  -20.59514 -20.54574 -15.60743 -11.38304  -1.43457
 Alpha  occ. eigenvalues --   -1.34422  -1.19753  -0.83672  -0.76117  -0.68055
 Alpha  occ. eigenvalues --   -0.67686  -0.63992  -0.59771  -0.57472  -0.48729
 Alpha  occ. eigenvalues --   -0.45713  -0.43816
 Alpha virt. eigenvalues --    0.01605   0.04247   0.04369   0.05879   0.07668
 Alpha virt. eigenvalues --    0.10606   0.11636   0.14876   0.15534   0.17430
 Alpha virt. eigenvalues --    0.17624   0.17785   0.18204   0.19642   0.23762

 Mulliken charges:
               1
     1  C    0.836312
     2  O   -0.485928
     3  O   -0.474653
     4  H    0.347215
     5  N   -0.161918
     6  H    0.031193
     7  H    0.032894
     8  H    0.054329
     9  H   -0.179444
 Sum of Mulliken charges =  -0.00000

 Dipole moment (field-independent basis, Debye):
    X=             -6.7736    Y=             -1.8514    Z=             -0.0052  Tot=              7.0220
 Quadrupole moment (field-independent basis, Debye-Ang):
   XX=            -23.5216   YY=            -24.9755   ZZ=            -23.8868
   XY=              0.2076   XZ=              0.0224   YZ=              0.0159

  Exact polarizability:      51.561      -0.246      34.003       0.050       0.066      27.784
 Approx polarizability:      34.514       0.006      27.598       0.034       0.060      24.699

                      1                      2                      3
                      A                      A                      A
 Frequencies --     11.6227                84.5884               112.9693
 Red. masses --      1.1653                 3.4632                 2.2411
 Frc consts  --      0.0001                 0.0146                 0.0169
 IR Inten    --      1.6091                 0.0813                 7.3189

                      4                      5                      6
                      A                      A                      A
 Frequencies --    221.0198               310.4715               339.7013
 Red. masses --      4.6020                 1.2127                 1.2474
 Frc consts  --      0.1325                 0.0689                 0.0848
 IR Inten    --     10.6234                28.6555                33.8068

                      7                      8                      9
                      A                      A                      A
 Frequencies --    681.6753               991.5778              1031.3749
 Red. masses --      7.8342                 1.0498                 1.6931
 Frc consts  --      2.1449                 0.6081                 1.0611
 IR Inten    --      1.8053                76.4478                 0.2400

                     10                     11                     12
                      A                      A                      A
 Frequencies --   1148.2898              1175.3107              1403.5131
 Red. masses --      1.1859                 4.6989                 1.1523
 Frc consts  --      0.9213                 3.8243                 1.3373
 IR Inten    --    150.1479               139.7432                 9.9758

                     13                     14                     15
                      A                      A                      A
 Frequencies --   1456.8778              1646.6641              1647.6894
 Red. masses --      1.2361                 1.0632                 1.0614
 Frc consts  --      1.5458                 1.6986                 1.6978
 IR Inten    --    251.6071                11.6489                17.7179

                     16                     17                     18
                      A                      A                      A
 Frequencies --   1789.7698              3018.5948              3264.5076
 Red. masses --      6.6048                 1.0873                 1.0720
 Frc consts  --     12.4654                 5.8373                 6.7308
 IR Inten    --    349.3026                66.3836              1412.2104

                     19                     20                     21
                      A                      A                      A
 Frequencies --   3476.0786              3622.0749              3626.4602
 Red. masses --      1.0284                 1.0886                 1.0889
 Frc consts  --      7.3213                 8.4146                 8.4372
 IR Inten    --      1.6212                18.3016                17.3101

 - Thermochemistry -
 -------------------
 Temperature   298.150 Kelvin.  Pressure   1.00000 Atm.
 Atom     1 has atomic number  6 and mass  12.00000

 Molecular mass:    63.03203 amu.
 Principal axes and moments of inertia in atomic units:
                           1         2         3
     Eigenvalues --    53.54899 737.05523 780.98152
           X            0.99999   0.00539  -0.00001
           Y           -0.00539   0.99999   0.00015
           Z            0.00001  -0.00015   1.00000
 This molecule is an asymmetric top.
 Rotational symmetry number  1.
 Rotational temperatures (Kelvin)      1.61747     0.11751     0.11090
 Rotational constants (GHZ):          33.70262     2.44858     2.31086
 Zero-point vibrational energy     185785.0 (Joules/Mol)
                                   44.40369 (Kcal/Mol)
 Warning -- explicit consideration of   6 degrees of freedom as
           vibrations may cause significant error
 Vibrational temperatures:     16.72   121.70   162.54   318.00   446.70
          (Kelvin)            488.75   980.78  1426.66  1483.92  1652.13
                             1691.01  2019.34  2096.12  2369.18  2370.66
                             2575.08  4343.08  4696.90  5001.30  5211.36
                             5217.67

 Zero-point correction=                           0.070762 (Hartree/Particle)
 Thermal correction to Energy=                    0.077545
 Thermal correction to Enthalpy=                  0.078490
 Thermal correction to Gibbs Free Energy=         0.038975
 Sum of electronic and zero-point Energies=           -245.672654
 Sum of electronic and thermal Energies=              -245.665870
 Sum of electronic and thermal Enthalpies=            -245.664926
 Sum of electronic and thermal Free Energies=         -245.704441

                     E (Thermal)             CV                S
                      KCal/Mol        Cal/Mol-Kelvin    Cal/Mol-Kelvin
 Total                   48.661             19.271             83.166
 Electronic               0.000              0.000              0.000
 Translational            0.889              2.981             38.342
 Rotational               0.889              2.981             24.936
 Vibrational             46.883             13.309             19.888
 Vibration     1          0.593              1.987              7.712
 Vibration     2          0.601              1.960              3.781
 Vibration     3          0.607              1.939              3.217
 Vibration     4          0.648              1.809              1.951
 Vibration     5          0.699              1.654              1.360
 Vibration     6          0.720              1.596              1.214

 ## DEPERTURBED TRANSITIONS MOMENTS ##

 Electric dipole : Fundamental Bands
 ------------------------------------------------------------------------

 ## AFTER VARIATIONAL CORRECTION

 Electric dipole : Fundamental Bands
 ------------------------------------------------------------------------

                           ! Non-Optimized Parameters !
 Normal termination of Gaussian 16 at Fri Mar 21 07:21:39 2025.
