 Gaussian 16, Revision C.01,
 Gaussian 16:  EM64L-G16RevC.01  3-Jul-2019

 ----------------------------------------------
 # MP2/aug-cc-pVTZ opt freq=(vibrot,anharmonic)
 ----------------------------------------------

 ----
 blah
 ----
 Symbolic Z-matrix:
 Charge =  0 Multiplicity = 1

 SCF Done:  E(RHF) =  -264.904072436     A.U. after   12 cycles
 E2 =    -0.9181757439D+00 EUMP2 =    -0.26582224818029D+03
 SCF Done:  E(RHF) =  -264.906642667     A.U. after    9 cycles
 E2 =    -0.9160004327D+00 EUMP2 =    -0.26582264310018D+03
 SCF Done:  E(RHF) =  -264.906858301     A.U. after    9 cycles
 E2 =    -0.9157857752D+00 EUMP2 =    -0.26582264407654D+03
 SCF Done:  E(RHF) =  -264.907117492     A.U. after   10 cycles
 E2 =    -0.9155216338D+00 EUMP2 =    -0.26582263912608D+03
 SCF Done:  E(RHF) =  -264.906865813     A.U. after    9 cycles
 E2 =    -0.9157878993D+00 EUMP2 =    -0.26582265371273D+03
 SCF Done:  E(RHF) =  -264.906857142     A.U. after    8 cycles
 E2 =    -0.9157969338D+00 EUMP2 =    -0.26582265407599D+03
 SCF Done:  E(RHF) =  -264.906831394     A.U. after    9 cycles
 E2 =    -0.9158230530D+00 EUMP2 =    -0.26582265444675D+03
 SCF Done:  E(RHF) =  -264.906838387     A.U. after    7 cycles
 E2 =    -0.9158162247D+00 EUMP2 =    -0.26582265461123D+03
 SCF Done:  E(RHF) =  -264.906841114     A.U. after    8 cycles
 E2 =    -0.9158136385D+00 EUMP2 =    -0.26582265475299D+03
 SCF Done:  E(RHF) =  -264.906838241     A.U. after    7 cycles
 E2 =    -0.9158166017D+00 EUMP2 =    -0.26582265484316D+03
 E2 =    -0.9158136742D+00 EUMP2 =    -0.26582265494148D+03
 E2 =    -0.9158035470D+00 EUMP2 =    -0.26582265504730D+03
 Optimization completed.
    -- Stationary point found.
 Normal termination of Gaussian 16 at Sat Mar 22 20:55:30 2025.

 ----------------------------------------------------------------------
 #N Geom=AllCheck Guess=TCheck SCRF=Check GenChk RMP2(FC)/Aug-CC-pVTZ F
 req
 ----------------------------------------------------------------------

 Structure from the checkpoint file:  "/scr/Gau-90347.chk"
 ----
 blah
 ----
 Charge =  0 Multiplicity = 1

                         Standard orientation:
 ---------------------------------------------------------------------
 Center     Atomic      Atomic             Coordinates (Angstroms)
 Number     Number       Type             X           Y           Z
 ---------------------------------------------------------------------
      1          6           0        1.027905   -0.294933    0.000236
      2          8           0        2.225558   -0.176088   -0.000289
      3          8           0        0.185341    0.749911    0.000152
      4          1           0       -0.732769    0.414495    0.000576
      5          8           0       -2.412730   -0.234316   -0.000104
      6          1           0        0.515325   -1.267768    0.000706
      7          1           0       -2.968155   -0.046903    0.763295
      8          1           0       -2.967180   -0.046277   -0.764060
 ---------------------------------------------------------------------

 E2 =    -0.9158035401D+00 EUMP2 =    -0.26582265504039D+03
 E2 =    -0.9158035401D+00 EUMP2 =    -0.26582265504039D+03
 E2 =    -0.9158021061D+00 EUMP2 =    -0.26582265502189D+03
 E2 =    -0.9158021061D+00 EUMP2 =    -0.26582265502189D+03
 E2 =    -0.9158055141D+00 EUMP2 =    -0.26582265499388D+03
 E2 =    -0.9158055141D+00 EUMP2 =    -0.26582265499388D+03
 E2 =    -0.9158050334D+00 EUMP2 =    -0.26582265499956D+03
 E2 =    -0.9158050334D+00 EUMP2 =    -0.26582265499956D+03
 SCF Done:  E(RHF) =  -264.907165828     A.U. after    9 cycles
 E2 =    -0.9154657468D+00 EUMP2 =    -0.26582263157490D+03
 E2 =    -0.9154657468D+00 EUMP2 =    -0.26582263157490D+03
 SCF Done:  E(RHF) =  -264.906491346     A.U. after    9 cycles
 E2 =    -0.9161425215D+00 EUMP2 =    -0.26582263386699D+03
 E2 =    -0.9161425215D+00 EUMP2 =    -0.26582263386699D+03
 SCF Done:  E(RHF) =  -264.906879274     A.U. after    8 cycles
 E2 =    -0.9157123703D+00 EUMP2 =    -0.26582259164413D+03
 E2 =    -0.9157123703D+00 EUMP2 =    -0.26582259164413D+03
 SCF Done:  E(RHF) =  -264.906694903     A.U. after    8 cycles
 E2 =    -0.9158994402D+00 EUMP2 =    -0.26582259434359D+03
 E2 =    -0.9158994402D+00 EUMP2 =    -0.26582259434359D+03
 SCF Done:  E(RHF) =  -264.907292400     A.U. after    9 cycles
 E2 =    -0.9152750096D+00 EUMP2 =    -0.26582256740952D+03
 E2 =    -0.9152750096D+00 EUMP2 =    -0.26582256740952D+03
 SCF Done:  E(RHF) =  -264.906236684     A.U. after    9 cycles
 E2 =    -0.9163337537D+00 EUMP2 =    -0.26582257043782D+03
 E2 =    -0.9163337537D+00 EUMP2 =    -0.26582257043782D+03
 SCF Done:  E(RHF) =  -264.907300056     A.U. after    8 cycles
 E2 =    -0.9152553379D+00 EUMP2 =    -0.26582255539389D+03
 E2 =    -0.9152553379D+00 EUMP2 =    -0.26582255539389D+03
 SCF Done:  E(RHF) =  -264.906203496     A.U. after    8 cycles
 E2 =    -0.9163548388D+00 EUMP2 =    -0.26582255833495D+03
 E2 =    -0.9163548388D+00 EUMP2 =    -0.26582255833495D+03
 SCF Done:  E(RHF) =  -264.906747611     A.U. after    7 cycles
 E2 =    -0.9158030210D+00 EUMP2 =    -0.26582255063216D+03
 E2 =    -0.9158030210D+00 EUMP2 =    -0.26582255063216D+03
 SCF Done:  E(RHF) =  -264.906747713     A.U. after    7 cycles
 E2 =    -0.9158029131D+00 EUMP2 =    -0.26582255062627D+03
 E2 =    -0.9158029131D+00 EUMP2 =    -0.26582255062627D+03

 Alpha  occ. eigenvalues --  -20.62164 -20.59571 -20.53924 -11.37320  -1.44465
 Alpha  occ. eigenvalues --   -1.40789  -1.35167  -0.84401  -0.77392  -0.77075
 Alpha  occ. eigenvalues --   -0.64994  -0.64572  -0.60853  -0.58067  -0.55472
 Alpha  occ. eigenvalues --   -0.46672  -0.44564
 Alpha virt. eigenvalues --    0.01072   0.03496   0.04302   0.05283   0.09030
 Alpha virt. eigenvalues --    0.09927   0.11463   0.12199   0.14695   0.15523
 Alpha virt. eigenvalues --    0.15987   0.16612   0.17283   0.18842   0.19485

 Mulliken charges:
               1
     1  C   -0.090385
     2  O   -0.495918
     3  O   -0.299241
     4  H    0.310479
     5  O   -0.379236
     6  H    0.521690
     7  H    0.209378
     8  H    0.223232
 Sum of Mulliken charges =  -0.00000

 Dipole moment (field-independent basis, Debye):
    X=             -6.5626    Y=             -0.8870    Z=             -0.0157  Tot=              6.6223
 Quadrupole moment (field-independent basis, Debye-Ang):
   XX=            -19.8205   YY=            -26.1711   ZZ=            -21.6804
   XY=             -1.8783   XZ=              0.0667   YZ=             -0.0058

  Exact polarizability:      43.579      -1.093      30.179       0.069      -0.020      25.174
 Approx polarizability:      30.387      -0.435      23.144       0.052      -0.020      22.073

                      1                      2                      3
                      A                      A                      A
 Frequencies --     72.5293                88.3400               108.2374
 Red. masses --      4.3168                 1.3382                 1.5378
 Frc consts  --      0.0134                 0.0062                 0.0106
 IR Inten    --      4.9792                10.4762                41.5595

                      4                      5                      6
                      A                      A                      A
 Frequencies --    191.0727               247.7472               281.1095
 Red. masses --      3.0328                 1.5895                 1.2191
 Frc consts  --      0.0652                 0.0575                 0.0568
 IR Inten    --     16.6530               213.9396                24.0477

                      7                      8                      9
                      A                      A                      A
 Frequencies --    680.9601               874.1534              1046.9999
 Red. masses --      7.3309                 1.0505                 1.6783
 Frc consts  --      2.0029                 0.4730                 1.0840
 IR Inten    --      1.9895                85.9199                 0.0970

                     10                     11                     12
                      A                      A                      A
 Frequencies --   1170.1261              1371.8869              1419.9706
 Red. masses --      3.7297                 1.3258                 1.1516
 Frc consts  --      3.0088                 1.4702                 1.3681
 IR Inten    --    106.7386               262.4546                 7.4548

                     13                     14                     15
                      A                      A                      A
 Frequencies --   1632.9564              1817.5383              3029.9009
 Red. masses --      1.0850                 7.6816                 1.0891
 Frc consts  --      1.7046                14.9510                 5.8907
 IR Inten    --     57.4267               338.1996                58.9038

                     16                     17                     18
                      A                      A                      A
 Frequencies --   3569.3320              3811.4464              3930.7104
 Red. masses --      1.0680                 1.0447                 1.0821
 Frc consts  --      8.0168                 8.9420                 9.8506
 IR Inten    --    805.1179                15.8771               115.0856

 - Thermochemistry -
 -------------------
 Temperature   298.150 Kelvin.  Pressure   1.00000 Atm.
 Atom     1 has atomic number  6 and mass  12.00000

 Molecular mass:    64.01604 amu.
 Principal axes and moments of inertia in atomic units:
                           1         2         3
     Eigenvalues --    51.31738 731.06708 773.98861
           X            1.00000  -0.00307   0.00001
           Y            0.00307   1.00000  -0.00009
           Z           -0.00001   0.00009   1.00000
 This molecule is an asymmetric top.
 Rotational symmetry number  1.
 Rotational temperatures (Kelvin)      1.68781     0.11848     0.11191
 Rotational constants (GHZ):          35.16823     2.46864     2.33174
 Zero-point vibrational energy     151596.9 (Joules/Mol)
                                   36.23252 (Kcal/Mol)
 Warning -- explicit consideration of   6 degrees of freedom as
           vibrations may cause significant error
 Vibrational temperatures:    104.35   127.10   155.73   274.91   356.45
          (Kelvin)            404.45   979.75  1257.71  1506.40  1683.55
                             1973.84  2043.02  2349.46  2615.03  4359.35
                             5135.47  5483.82  5655.42

 Zero-point correction=                           0.057740 (Hartree/Particle)
 Thermal correction to Energy=                    0.064595
 Thermal correction to Enthalpy=                  0.065539
 Thermal correction to Gibbs Free Energy=         0.027295
 Sum of electronic and zero-point Energies=           -265.764915
 Sum of electronic and thermal Energies=              -265.758060
 Sum of electronic and thermal Enthalpies=            -265.757116
 Sum of electronic and thermal Free Energies=         -265.795360

                     E (Thermal)             CV                S
                      KCal/Mol        Cal/Mol-Kelvin    Cal/Mol-Kelvin
 Total                   40.534             19.398             80.491
 Electronic               0.000              0.000              0.000
 Translational            0.889              2.981             38.388
 Rotational               0.889              2.981             24.877
 Vibrational             38.757             13.436             17.226
 Vibration     1          0.599              1.967              4.084
 Vibration     2          0.601              1.957              3.696
 Vibration     3          0.606              1.943              3.300
 Vibration     4          0.634              1.852              2.217
 Vibration     5          0.661              1.767              1.747
 Vibration     6          0.681              1.709              1.527

 ## DEPERTURBED TRANSITIONS MOMENTS ##

 Electric dipole : Fundamental Bands
 ------------------------------------------------------------------------

 ## AFTER VARIATIONAL CORRECTION

 Electric dipole : Fundamental Bands
 ------------------------------------------------------------------------

 Optimization completed.
    -- Stationary point found.
 Normal termination of Gaussian 16 at Sun Mar 23 06:59:04 2025.
