 Gaussian 16, Revision C.01,
 Gaussian 16:  EM64L-G16RevC.01  3-Jul-2019

 ----------------------------------------------
 # MP2/aug-cc-pVTZ opt freq=(vibrot,anharmonic)
 ----------------------------------------------

 ----
 blah
 ----
 Symbolic Z-matrix:
 Charge =  0 Multiplicity = 1

 SCF Done:  E(RHF) =  -245.068941221     A.U. after   12 cycles
 E2 =    -0.8898736281D+00 EUMP2 =    -0.24595881484894D+03
 Optimization completed.
    -- Stationary point found.
 Normal termination of Gaussian 16 at Sat Mar 29 09:06:56 2025.

 ----------------------------------------------------------------------
 #N Geom=AllCheck Guess=TCheck SCRF=Check GenChk RMP2(FC)/Aug-CC-pVTZ F
 req
 ----------------------------------------------------------------------

 Structure from the checkpoint file:  "/scr/Gau-71573.chk"
 ----
 blah
 ----
 Charge =  0 Multiplicity = 1

                         Standard orientation:
 ---------------------------------------------------------------------
 Center     Atomic      Atomic             Coordinates (Angstroms)
 Number     Number       Type             X           Y           Z
 ---------------------------------------------------------------------
      1          6           0        1.051245   -0.292927   -0.000159
      2          8           0        2.249544   -0.157666    0.000139
      3          8           0        0.187990    0.725286   -0.000069
      4          1           0       -0.737196    0.367340   -0.000257
      5          7           0       -2.452021   -0.163705    0.000014
      6          1           0       -3.018289    0.676212   -0.032086
      7          1           0       -2.731024   -0.672792    0.830245
      8          1           0       -2.720604   -0.727886   -0.797381
      9          1           0        0.563507   -1.280337   -0.000223
 ---------------------------------------------------------------------

 SCF Done:  E(RHF) =  -245.068941221     A.U. after    1 cycles
 E2 =    -0.8898736292D+00 EUMP2 =    -0.24595881485008D+03
 E2 =    -0.8898736292D+00 EUMP2 =    -0.24595881485008D+03
 SCF Done:  E(RHF) =  -245.068940329     A.U. after    8 cycles
 E2 =    -0.8898745733D+00 EUMP2 =    -0.24595881490225D+03
 E2 =    -0.8898745733D+00 EUMP2 =    -0.24595881490225D+03
 SCF Done:  E(RHF) =  -245.068940317     A.U. after    8 cycles
 E2 =    -0.8898744940D+00 EUMP2 =    -0.24595881481081D+03
 E2 =    -0.8898744940D+00 EUMP2 =    -0.24595881481081D+03
 SCF Done:  E(RHF) =  -245.068935882     A.U. after    7 cycles
 E2 =    -0.8898789189D+00 EUMP2 =    -0.24595881480072D+03
 E2 =    -0.8898789189D+00 EUMP2 =    -0.24595881480072D+03
 SCF Done:  E(RHF) =  -245.068945993     A.U. after    7 cycles
 E2 =    -0.8898688308D+00 EUMP2 =    -0.24595881482360D+03
 E2 =    -0.8898688308D+00 EUMP2 =    -0.24595881482360D+03
 SCF Done:  E(RHF) =  -245.068940555     A.U. after    9 cycles
 E2 =    -0.8898742479D+00 EUMP2 =    -0.24595881480289D+03
 E2 =    -0.8898742479D+00 EUMP2 =    -0.24595881480289D+03
 SCF Done:  E(RHF) =  -245.068940514     A.U. after    9 cycles
 E2 =    -0.8898742377D+00 EUMP2 =    -0.24595881475128D+03
 E2 =    -0.8898742377D+00 EUMP2 =    -0.24595881475128D+03
 SCF Done:  E(RHF) =  -245.068915493     A.U. after    6 cycles
 E2 =    -0.8898991800D+00 EUMP2 =    -0.24595881467277D+03
 E2 =    -0.8898991800D+00 EUMP2 =    -0.24595881467277D+03
 SCF Done:  E(RHF) =  -245.068966071     A.U. after    6 cycles
 E2 =    -0.8898483250D+00 EUMP2 =    -0.24595881439562D+03
 E2 =    -0.8898483250D+00 EUMP2 =    -0.24595881439562D+03
 E2 =    -0.8898747428D+00 EUMP2 =    -0.24595881414259D+03
 SCF Done:  E(RHF) =  -245.068995769     A.U. after    8 cycles
 E2 =    -0.8897568783D+00 EUMP2 =    -0.24595875264707D+03
 E2 =    -0.8897568783D+00 EUMP2 =    -0.24595875264707D+03
 SCF Done:  E(RHF) =  -245.068759843     A.U. after    8 cycles
 E2 =    -0.8899951349D+00 EUMP2 =    -0.24595875497790D+03
 E2 =    -0.8899951349D+00 EUMP2 =    -0.24595875497790D+03
 SCF Done:  E(RHF) =  -245.069397322     A.U. after    9 cycles
 E2 =    -0.8893422464D+00 EUMP2 =    -0.24595873956802D+03
 E2 =    -0.8893422464D+00 EUMP2 =    -0.24595873956802D+03
 SCF Done:  E(RHF) =  -245.068339950     A.U. after    9 cycles
 E2 =    -0.8904055726D+00 EUMP2 =    -0.24595874552264D+03
 E2 =    -0.8904055726D+00 EUMP2 =    -0.24595874552264D+03
 SCF Done:  E(RHF) =  -245.068511246     A.U. after    8 cycles
 E2 =    -0.8902220493D+00 EUMP2 =    -0.24595873329488D+03
 E2 =    -0.8902220493D+00 EUMP2 =    -0.24595873329488D+03
 SCF Done:  E(RHF) =  -245.069202190     A.U. after    8 cycles
 E2 =    -0.8895290611D+00 EUMP2 =    -0.24595873125075D+03
 E2 =    -0.8895290611D+00 EUMP2 =    -0.24595873125075D+03
 SCF Done:  E(RHF) =  -245.068857860     A.U. after    7 cycles
 E2 =    -0.8898685060D+00 EUMP2 =    -0.24595872636647D+03
 E2 =    -0.8898685060D+00 EUMP2 =    -0.24595872636647D+03
 SCF Done:  E(RHF) =  -245.068845468     A.U. after    7 cycles
 E2 =    -0.8898793876D+00 EUMP2 =    -0.24595872485548D+03
 E2 =    -0.8898793876D+00 EUMP2 =    -0.24595872485548D+03
 SCF Done:  E(RHF) =  -245.068851677     A.U. after    7 cycles
 E2 =    -0.8898737141D+00 EUMP2 =    -0.24595872539086D+03
 E2 =    -0.8898737141D+00 EUMP2 =    -0.24595872539086D+03
 SCF Done:  E(RHF) =  -245.068851349     A.U. after    7 cycles
 E2 =    -0.8898741096D+00 EUMP2 =    -0.24595872545900D+03
 E2 =    -0.8898741096D+00 EUMP2 =    -0.24595872545900D+03

 Alpha  occ. eigenvalues --  -20.58486 -20.53270 -15.59546 -11.36786  -1.43593
 Alpha  occ. eigenvalues --   -1.34387  -1.19910  -0.83601  -0.76466  -0.68487
 Alpha  occ. eigenvalues --   -0.68112  -0.64017  -0.60138  -0.57483  -0.48697
 Alpha  occ. eigenvalues --   -0.45845  -0.43834
 Alpha virt. eigenvalues --    0.01200   0.03465   0.03516   0.04909   0.06277
 Alpha virt. eigenvalues --    0.09287   0.09947   0.11850   0.13371   0.13976
 Alpha virt. eigenvalues --    0.14007   0.14911   0.15704   0.16404   0.18057

 Mulliken charges:
               1
     1  C   -0.105494
     2  O   -0.524689
     3  O   -0.320577
     4  H    0.336170
     5  N   -0.276846
     6  H    0.125461
     7  H    0.133365
     8  H    0.144203
     9  H    0.488406
 Sum of Mulliken charges =  -0.00000

 Dipole moment (field-independent basis, Debye):
    X=             -6.7481    Y=             -1.8100    Z=             -0.0071  Tot=              6.9866
 Quadrupole moment (field-independent basis, Debye-Ang):
   XX=            -23.2748   YY=            -24.6228   ZZ=            -23.5774
   XY=              0.2151   XZ=              0.0233   YZ=              0.0166

  Exact polarizability:      50.807      -0.288      34.012       0.050       0.065      28.056
 Approx polarizability:      33.955      -0.013      27.510       0.034       0.059      24.815

                      1                      2                      3
                      A                      A                      A
 Frequencies --     23.8115                86.4012               113.5625
 Red. masses --      1.1657                 3.4654                 2.2328
 Frc consts  --      0.0004                 0.0152                 0.0170
 IR Inten    --      1.7613                 0.0774                 7.2597

                      4                      5                      6
                      A                      A                      A
 Frequencies --    220.3463               308.2136               342.8378
 Red. masses --      4.6069                 1.2138                 1.2414
 Frc consts  --      0.1318                 0.0679                 0.0860
 IR Inten    --     10.6106                27.9193                32.8037

                      7                      8                      9
                      A                      A                      A
 Frequencies --    693.9627               996.3933              1046.3004
 Red. masses --      7.7471                 1.0527                 1.6844
 Frc consts  --      2.1982                 0.6157                 1.0864
 IR Inten    --      1.8129                75.7935                 0.0242

                     10                     11                     12
                      A                      A                      A
 Frequencies --   1138.7094              1197.2449              1417.5754
 Red. masses --      1.1894                 4.5457                 1.1577
 Frc consts  --      0.9086                 3.8390                 1.3706
 IR Inten    --    160.0721               137.2340                15.8633

                     13                     14                     15
                      A                      A                      A
 Frequencies --   1456.3624              1668.4838              1669.3016
 Red. masses --      1.2326                 1.0637                 1.0628
 Frc consts  --      1.5403                 1.7447                 1.7449
 IR Inten    --    241.3334                12.8448                18.7948

                     16                     17                     18
                      A                      A                      A
 Frequencies --   1812.8075              3005.3888              3270.7388
 Red. masses --      6.9427                 1.0871                 1.0723
 Frc consts  --     13.4426                 5.7851                 6.7585
 IR Inten    --    367.6230                63.2192              1443.3697

                     19                     20                     21
                      A                      A                      A
 Frequencies --   3495.8951              3634.1954              3637.9627
 Red. masses --      1.0274                 1.0891                 1.0894
 Frc consts  --      7.3978                 8.4751                 8.4949
 IR Inten    --      1.3103                23.9839                22.9064

 - Thermochemistry -
 -------------------
 Temperature   298.150 Kelvin.  Pressure   1.00000 Atm.
 Atom     1 has atomic number  6 and mass  12.00000

 Molecular mass:    63.03203 amu.
 Principal axes and moments of inertia in atomic units:
                           1         2         3
     Eigenvalues --    52.65604 729.09071 772.20107
           X            0.99999   0.00526  -0.00001
           Y           -0.00526   0.99999   0.00002
           Z            0.00001  -0.00002   1.00000
 This molecule is an asymmetric top.
 Rotational symmetry number  1.
 Rotational temperatures (Kelvin)      1.64490     0.11880     0.11216
 Rotational constants (GHZ):          34.27415     2.47533     2.33714
 Zero-point vibrational energy     186835.7 (Joules/Mol)
                                   44.65481 (Kcal/Mol)
 Warning -- explicit consideration of   6 degrees of freedom as
           vibrations may cause significant error
 Vibrational temperatures:     34.26   124.31   163.39   317.03   443.45
          (Kelvin)            493.27   998.46  1433.59  1505.39  1638.35
                             1722.57  2039.57  2095.38  2400.58  2401.75
                             2608.23  4324.08  4705.86  5029.81  5228.80
                             5234.22

 Zero-point correction=                           0.071162 (Hartree/Particle)
 Thermal correction to Energy=                    0.077905
 Thermal correction to Enthalpy=                  0.078849
 Thermal correction to Gibbs Free Energy=         0.040065
 Sum of electronic and zero-point Energies=           -245.887653
 Sum of electronic and thermal Energies=              -245.880910
 Sum of electronic and thermal Enthalpies=            -245.879966
 Sum of electronic and thermal Free Energies=         -245.918750

                     E (Thermal)             CV                S
                      KCal/Mol        Cal/Mol-Kelvin    Cal/Mol-Kelvin
 Total                   48.886             19.201             81.628
 Electronic               0.000              0.000              0.000
 Translational            0.889              2.981             38.342
 Rotational               0.889              2.981             24.898
 Vibrational             47.109             13.240             18.388
 Vibration     1          0.593              1.985              6.288
 Vibration     2          0.601              1.959              3.740
 Vibration     3          0.607              1.938              3.207
 Vibration     4          0.647              1.810              1.956
 Vibration     5          0.698              1.658              1.372
 Vibration     6          0.722              1.590              1.199

 ## DEPERTURBED TRANSITIONS MOMENTS ##

 Electric dipole : Fundamental Bands
 ------------------------------------------------------------------------

 ## AFTER VARIATIONAL CORRECTION

 Electric dipole : Fundamental Bands
 ------------------------------------------------------------------------

                           ! Non-Optimized Parameters !
 Normal termination of Gaussian 16 at Sun Mar 30 00:31:50 2025.
