 Gaussian 16, Revision C.01,
 Gaussian 16:  EM64L-G16RevC.01  3-Jul-2019

 ----------------------------------------------
 # MP2/aug-cc-pVDZ opt freq=(vibrot,anharmonic)
 ----------------------------------------------

 ----
 blah
 ----
 Symbolic Z-matrix:
 Charge =  0 Multiplicity = 1

 SCF Done:  E(RHF) =  -284.055252929     A.U. after   13 cycles
 E2 =    -0.8831647230D+00 EUMP2 =    -0.28493841765244D+03
 SCF Done:  E(RHF) =  -284.057164644     A.U. after   12 cycles
 E2 =    -0.8827750749D+00 EUMP2 =    -0.28493993971883D+03
 SCF Done:  E(RHF) =  -284.057200953     A.U. after   12 cycles
 E2 =    -0.8826923413D+00 EUMP2 =    -0.28493989329423D+03
 SCF Done:  E(RHF) =  -284.057098601     A.U. after   12 cycles
 E2 =    -0.8829005128D+00 EUMP2 =    -0.28493999911342D+03
 SCF Done:  E(RHF) =  -284.057262067     A.U. after   11 cycles
 E2 =    -0.8827169370D+00 EUMP2 =    -0.28493997900437D+03
 SCF Done:  E(RHF) =  -284.057166343     A.U. after   11 cycles
 E2 =    -0.8828443326D+00 EUMP2 =    -0.28494001067536D+03
 SCF Done:  E(RHF) =  -284.057193089     A.U. after   11 cycles
 E2 =    -0.8828201700D+00 EUMP2 =    -0.28494001325902D+03
 SCF Done:  E(RHF) =  -284.057181185     A.U. after   10 cycles
 E2 =    -0.8828338535D+00 EUMP2 =    -0.28494001503821D+03
 SCF Done:  E(RHF) =  -284.057193254     A.U. after   10 cycles
 E2 =    -0.8828228574D+00 EUMP2 =    -0.28494001611162D+03
 SCF Done:  E(RHF) =  -284.057217067     A.U. after   10 cycles
 E2 =    -0.8828003325D+00 EUMP2 =    -0.28494001739953D+03
 E2 =    -0.8827832791D+00 EUMP2 =    -0.28494001809488D+03
 E2 =    -0.8827836968D+00 EUMP2 =    -0.28494001921003D+03
 E2 =    -0.8827899298D+00 EUMP2 =    -0.28494002027795D+03
 E2 =    -0.8827997247D+00 EUMP2 =    -0.28494002072870D+03
 E2 =    -0.8828121369D+00 EUMP2 =    -0.28494002116492D+03
 E2 =    -0.8828174809D+00 EUMP2 =    -0.28494002157170D+03
 E2 =    -0.8828192016D+00 EUMP2 =    -0.28494002181994D+03
 E2 =    -0.8828159544D+00 EUMP2 =    -0.28494002189257D+03
 E2 =    -0.8828118502D+00 EUMP2 =    -0.28494002193618D+03
 E2 =    -0.8828089114D+00 EUMP2 =    -0.28494002196485D+03
 Optimization completed.
    -- Stationary point found.
 Normal termination of Gaussian 16 at Fri Apr  4 01:35:17 2025.

 ----------------------------------------------------------------------
 #N Geom=AllCheck Guess=TCheck SCRF=Check GenChk RMP2(FC)/Aug-CC-pVDZ F
 req
 ----------------------------------------------------------------------

 Structure from the checkpoint file:  "/scr/Gau-1638.chk"
 ----
 blah
 ----
 Charge =  0 Multiplicity = 1

                         Standard orientation:
 ---------------------------------------------------------------------
 Center     Atomic      Atomic             Coordinates (Angstroms)
 Number     Number       Type             X           Y           Z
 ---------------------------------------------------------------------
      1          6           0       -1.057824   -0.079432   -0.000016
      2          8           0       -2.254655   -0.387847   -0.000042
      3          7           0       -0.057057   -1.014722    0.000057
      4          6           0       -0.594195    1.368626   -0.000021
      5          1           0       -1.011042    1.866182   -0.887776
      6          1           0        0.500725    1.465747   -0.000681
      7          1           0       -1.009867    1.865769    0.888540
      8          8           0        2.808725    0.001687   -0.000029
      9          1           0        3.400829    0.002780   -0.763405
     10          1           0        3.400874    0.004041    0.763310
     11          1           0       -0.326364   -1.990298    0.000224
     12          1           0        0.923792   -0.757057    0.000179
 ---------------------------------------------------------------------

 SCF Done:  E(RHF) =  -284.057133849     A.U. after    9 cycles
 E2 =    -0.8828198376D+00 EUMP2 =    -0.28493995368631D+03
 E2 =    -0.8828198376D+00 EUMP2 =    -0.28493995368631D+03
 SCF Done:  E(RHF) =  -284.057159010     A.U. after    9 cycles
 E2 =    -0.8827938604D+00 EUMP2 =    -0.28493995287024D+03
 E2 =    -0.8827938604D+00 EUMP2 =    -0.28493995287024D+03
 SCF Done:  E(RHF) =  -284.056680774     A.U. after    9 cycles
 E2 =    -0.8832567585D+00 EUMP2 =    -0.28493993753218D+03
 E2 =    -0.8832567585D+00 EUMP2 =    -0.28493993753218D+03
 SCF Done:  E(RHF) =  -284.057574499     A.U. after    9 cycles
 E2 =    -0.8823602041D+00 EUMP2 =    -0.28493993470358D+03
 E2 =    -0.8823602041D+00 EUMP2 =    -0.28493993470358D+03
 SCF Done:  E(RHF) =  -284.057141339     A.U. after    8 cycles
 E2 =    -0.8827861442D+00 EUMP2 =    -0.28493992748293D+03
 E2 =    -0.8827861442D+00 EUMP2 =    -0.28493992748293D+03
 SCF Done:  E(RHF) =  -284.057099501     A.U. after    8 cycles
 E2 =    -0.8828292821D+00 EUMP2 =    -0.28493992878333D+03
 E2 =    -0.8828292821D+00 EUMP2 =    -0.28493992878333D+03
 SCF Done:  E(RHF) =  -284.057746304     A.U. after    8 cycles
 E2 =    -0.8821765558D+00 EUMP2 =    -0.28493992285959D+03
 E2 =    -0.8821765558D+00 EUMP2 =    -0.28493992285959D+03
 SCF Done:  E(RHF) =  -284.056485240     A.U. after    8 cycles
 E2 =    -0.8834409133D+00 EUMP2 =    -0.28493992615307D+03
 E2 =    -0.8834409133D+00 EUMP2 =    -0.28493992615307D+03
 SCF Done:  E(RHF) =  -284.057111161     A.U. after    8 cycles
 E2 =    -0.8828064560D+00 EUMP2 =    -0.28493991761734D+03
 E2 =    -0.8828064560D+00 EUMP2 =    -0.28493991761734D+03
 SCF Done:  E(RHF) =  -284.057111195     A.U. after    8 cycles
 E2 =    -0.8828064226D+00 EUMP2 =    -0.28493991761803D+03
 E2 =    -0.8828064226D+00 EUMP2 =    -0.28493991761803D+03

 Alpha  occ. eigenvalues --  -20.61438 -20.51041 -15.57422 -11.34867 -11.23380
 Alpha  occ. eigenvalues --   -1.39030  -1.35572  -1.19090  -0.98631  -0.78027
 Alpha  occ. eigenvalues --   -0.75072  -0.70993  -0.64452  -0.62482  -0.59434
 Alpha  occ. eigenvalues --   -0.56192  -0.55041  -0.53895  -0.50369  -0.40636
 Alpha  occ. eigenvalues --   -0.39327
 Alpha virt. eigenvalues --    0.01811   0.04439   0.04915   0.04947   0.07164
 Alpha virt. eigenvalues --    0.07461   0.08783   0.10843   0.13373   0.14490
 Alpha virt. eigenvalues --    0.15559   0.16289   0.16793   0.17754   0.18022

 Mulliken charges:
               1
     1  C    0.427696
     2  O   -0.644633
     3  N    0.019450
     4  C    0.479708
     5  H   -0.001356
     6  H   -0.173125
     7  H   -0.001155
     8  O   -0.384813
     9  H    0.182071
    10  H    0.164008
    11  H   -0.065331
    12  H   -0.002522
 Sum of Mulliken charges =  -0.00000

 Dipole moment (field-independent basis, Debye):
    X=              6.6018    Y=              0.2816    Z=             -0.0141  Tot=              6.6079
 Quadrupole moment (field-independent basis, Debye-Ang):
   XX=            -28.4209   YY=            -29.8002   ZZ=            -30.4734
   XY=             -2.4660   XZ=             -0.0660   YZ=              0.0019

  Exact polarizability:      59.546      -1.288      51.404      -0.080       0.001      39.586
 Approx polarizability:      43.838      -0.289      37.945      -0.060       0.002      35.741

                      1                      2                      3
                      A                      A                      A
 Frequencies --     35.0109                57.1353                66.2051
 Red. masses --      2.7896                 1.1711                 3.9147
 Frc consts  --      0.0020                 0.0023                 0.0101
 IR Inten    --      0.4118                 7.6377                 0.6403

                      4                      5                      6
                      A                      A                      A
 Frequencies --    139.4083               143.2131               149.5635
 Red. masses --      2.2103                 1.1483                 1.0995
 Frc consts  --      0.0253                 0.0139                 0.0145
 IR Inten    --     58.7003                11.4499                 0.3090

                      7                      8                      9
                      A                      A                      A
 Frequencies --    151.7470               436.8672               438.5312
 Red. masses --      1.7620                 2.5195                 1.1080
 Frc consts  --      0.0239                 0.2833                 0.1255
 IR Inten    --    160.3540                 7.2389               216.5179

                     10                     11                     12
                      A                      A                      A
 Frequencies --    543.7214               554.0769               745.7526
 Red. masses --      3.2834                 2.0297                 1.1828
 Frc consts  --      0.5719                 0.3671                 0.3876
 IR Inten    --     14.9382                 9.9433                 1.4794

                     13                     14                     15
                      A                      A                      A
 Frequencies --    865.3749               994.6760              1046.6588
 Red. masses --      3.1409                 1.4554                 1.7040
 Frc consts  --      1.3858                 0.8484                 1.0999
 IR Inten    --      1.7668                 8.5835                 0.8251

                     16                     17                     18
                      A                      A                      A
 Frequencies --   1130.0472              1343.9324              1398.6085
 Red. masses --      1.6813                 1.5868                 1.7525
 Frc consts  --      1.2650                 1.6886                 2.0198
 IR Inten    --      0.8584                45.4658               118.0275

                     19                     20                     21
                      A                      A                      A
 Frequencies --   1470.6767              1485.6120              1623.4572
 Red. masses --      1.0451                 1.2018                 1.1133
 Frc consts  --      1.3318                 1.5628                 1.7288
 IR Inten    --      5.6739                14.2238                85.9306

                     22                     23                     24
                      A                      A                      A
 Frequencies --   1643.3062              1740.3305              3079.1201
 Red. masses --      1.2504                 7.4391                 1.0352
 Frc consts  --      1.9894                13.2750                 5.7824
 IR Inten    --     54.2670               392.8472                 5.9017

                     25                     26                     27
                      A                      A                      A
 Frequencies --   3177.2513              3188.3805              3564.4360
 Red. masses --      1.1006                 1.1045                 1.0473
 Frc consts  --      6.5463                 6.6151                 7.8401
 IR Inten    --      5.0664                 8.2556               202.0433

                     28                     29                     30
                      A                      A                      A
 Frequencies --   3726.4267              3797.6863              3929.4969
 Red. masses --      1.1058                 1.0455                 1.0815
 Frc consts  --      9.0471                 8.8844                 9.8392
 IR Inten    --    147.4445                12.3878                89.3921

 - Thermochemistry -
 -------------------
 Temperature   298.150 Kelvin.  Pressure   1.00000 Atm.
 Atom     1 has atomic number  6 and mass  12.00000

 Molecular mass:    77.04768 amu.
 Principal axes and moments of inertia in atomic units:
                           1         2         3
     Eigenvalues --   199.18538 907.611271087.05192
           X            0.99990  -0.01437  -0.00000
           Y            0.01437   0.99990   0.00001
           Z            0.00000  -0.00001   1.00000
 This molecule is an asymmetric top.
 Rotational symmetry number  1.
 Rotational temperatures (Kelvin)      0.43484     0.09543     0.07968
 Rotational constants (GHZ):           9.06061     1.98845     1.66022
 Zero-point vibrational energy     255203.6 (Joules/Mol)
                                   60.99513 (Kcal/Mol)
 Warning -- explicit consideration of  11 degrees of freedom as
           vibrations may cause significant error
 Vibrational temperatures:     50.37    82.20    95.25   200.58   206.05
          (Kelvin)            215.19   218.33   628.55   630.95   782.29
                              797.19  1072.97  1245.08  1431.12  1505.91
                             1625.89  1933.62  2012.29  2115.98  2137.46
                             2335.79  2364.35  2503.95  4430.17  4571.36
                             4587.37  5128.43  5361.50  5464.02  5653.67

 Zero-point correction=                           0.097202 (Hartree/Particle)
 Thermal correction to Energy=                    0.106336
 Thermal correction to Enthalpy=                  0.107281
 Thermal correction to Gibbs Free Energy=         0.062405
 Sum of electronic and zero-point Energies=           -284.842820
 Sum of electronic and thermal Energies=              -284.833686
 Sum of electronic and thermal Enthalpies=            -284.832741
 Sum of electronic and thermal Free Energies=         -284.877617

                     E (Thermal)             CV                S
                      KCal/Mol        Cal/Mol-Kelvin    Cal/Mol-Kelvin
 Total                   66.727             27.359             94.448
 Electronic               0.000              0.000              0.000
 Translational            0.889              2.981             38.941
 Rotational               0.889              2.981             26.777
 Vibrational             64.950             21.397             28.730
 Vibration     1          0.594              1.982              5.523
 Vibration     2          0.596              1.975              4.554
 Vibration     3          0.598              1.970              4.263
 Vibration     4          0.615              1.914              2.812
 Vibration     5          0.616              1.910              2.760
 Vibration     6          0.618              1.903              2.678
 Vibration     7          0.619              1.901              2.650
 Vibration     8          0.797              1.390              0.837
 Vibration     9          0.799              1.386              0.831
 Vibration    10          0.899              1.153              0.557
 Vibration    11          0.909              1.131              0.536

 ## DEPERTURBED TRANSITIONS MOMENTS ##

 Electric dipole : Fundamental Bands
 ------------------------------------------------------------------------

 ## AFTER VARIATIONAL CORRECTION

 Electric dipole : Fundamental Bands
 ------------------------------------------------------------------------

                           ! Non-Optimized Parameters !
 Normal termination of Gaussian 16 at Fri Apr  4 04:40:44 2025.
