 Gaussian 16, Revision C.01,
 Gaussian 16:  EM64L-G16RevC.01  3-Jul-2019

 ----------------------------------------------
 # MP2/aug-cc-pVDZ opt freq=(vibrot,anharmonic)
 ----------------------------------------------

 ----
 blah
 ----
 Symbolic Z-matrix:
 Charge =  0 Multiplicity = 1

 SCF Done:  E(RHF) =  -264.218222715     A.U. after   13 cycles
 E2 =    -0.8619278915D+00 EUMP2 =    -0.26508015060648D+03
 SCF Done:  E(RHF) =  -264.219777850     A.U. after   12 cycles
 E2 =    -0.8653488141D+00 EUMP2 =    -0.26508512666446D+03
 SCF Done:  E(RHF) =  -264.216890622     A.U. after   14 cycles
 E2 =    -0.8671687784D+00 EUMP2 =    -0.26508405940026D+03
 SCF Done:  E(RHF) =  -264.220750032     A.U. after   12 cycles
 E2 =    -0.8649229986D+00 EUMP2 =    -0.26508567303090D+03
 SCF Done:  E(RHF) =  -264.221329150     A.U. after   12 cycles
 E2 =    -0.8645126166D+00 EUMP2 =    -0.26508584176637D+03
 SCF Done:  E(RHF) =  -264.222102449     A.U. after   12 cycles
 E2 =    -0.8637277232D+00 EUMP2 =    -0.26508583017236D+03
 SCF Done:  E(RHF) =  -264.222124851     A.U. after   12 cycles
 E2 =    -0.8638453296D+00 EUMP2 =    -0.26508597018050D+03
 SCF Done:  E(RHF) =  -264.222089679     A.U. after   10 cycles
 E2 =    -0.8638985859D+00 EUMP2 =    -0.26508598826483D+03
 SCF Done:  E(RHF) =  -264.222059798     A.U. after   10 cycles
 E2 =    -0.8639593250D+00 EUMP2 =    -0.26508601912344D+03
 SCF Done:  E(RHF) =  -264.222131756     A.U. after   11 cycles
 E2 =    -0.8639359589D+00 EUMP2 =    -0.26508606771503D+03
 E2 =    -0.8640059077D+00 EUMP2 =    -0.26508609997450D+03
 E2 =    -0.8641135035D+00 EUMP2 =    -0.26508611632400D+03
 E2 =    -0.8642835393D+00 EUMP2 =    -0.26508614652446D+03
 E2 =    -0.8643390579D+00 EUMP2 =    -0.26508615363127D+03
 E2 =    -0.8644542320D+00 EUMP2 =    -0.26508615956675D+03
 E2 =    -0.8644700905D+00 EUMP2 =    -0.26508616591043D+03
 E2 =    -0.8645532200D+00 EUMP2 =    -0.26508620455454D+03
 E2 =    -0.8645624556D+00 EUMP2 =    -0.26508623293833D+03
 E2 =    -0.8643889981D+00 EUMP2 =    -0.26508627798462D+03
 E2 =    -0.8643199404D+00 EUMP2 =    -0.26508630452312D+03
 Optimization completed.
    -- Stationary point found.
 Normal termination of Gaussian 16 at Sat Mar 29 18:06:51 2025.

 ----------------------------------------------------------------------
 #N Geom=AllCheck Guess=TCheck SCRF=Check GenChk RMP2(FC)/Aug-CC-pVDZ F
 req
 ----------------------------------------------------------------------

 Structure from the checkpoint file:  "/scr/Gau-36235.chk"
 ----
 blah
 ----
 Charge =  0 Multiplicity = 1

                         Standard orientation:
 ---------------------------------------------------------------------
 Center     Atomic      Atomic             Coordinates (Angstroms)
 Number     Number       Type             X           Y           Z
 ---------------------------------------------------------------------
      1          6           0       -1.078920   -0.090901   -0.000003
      2          8           0       -2.268894   -0.427732    0.000039
      3          7           0       -0.051172   -0.992574   -0.000008
      4          6           0       -0.658261    1.371362   -0.000023
      5          1           0       -1.085887    1.857908    0.888710
      6          1           0       -1.086144    1.857951   -0.888606
      7          1           0        0.433964    1.497841   -0.000160
      8          7           0        2.891360   -0.021554    0.000008
      9          1           0        3.561758   -0.790869    0.001784
     10          1           0        3.118097    0.549142    0.815258
     11          1           0        3.119287    0.546407   -0.816816
     12          1           0        0.928128   -0.705470   -0.000197
     13          1           0       -0.296292   -1.974912   -0.000125
 ---------------------------------------------------------------------

 SCF Done:  E(RHF) =  -264.221318517     A.U. after   10 cycles
 E2 =    -0.8649610897D+00 EUMP2 =    -0.26508627960659D+03
 E2 =    -0.8649610897D+00 EUMP2 =    -0.26508627960659D+03
 SCF Done:  E(RHF) =  -264.222468027     A.U. after   10 cycles
 E2 =    -0.8638089883D+00 EUMP2 =    -0.26508627701516D+03
 E2 =    -0.8638089883D+00 EUMP2 =    -0.26508627701516D+03
 SCF Done:  E(RHF) =  -264.221647037     A.U. after    8 cycles
 E2 =    -0.8646313990D+00 EUMP2 =    -0.26508627843606D+03
 E2 =    -0.8646313990D+00 EUMP2 =    -0.26508627843606D+03
 SCF Done:  E(RHF) =  -264.222139108     A.U. after    8 cycles
 E2 =    -0.8641380351D+00 EUMP2 =    -0.26508627714298D+03
 E2 =    -0.8641380351D+00 EUMP2 =    -0.26508627714298D+03
 SCF Done:  E(RHF) =  -264.221891967     A.U. after    8 cycles
 E2 =    -0.8643778924D+00 EUMP2 =    -0.26508626985904D+03
 E2 =    -0.8643778924D+00 EUMP2 =    -0.26508626985904D+03
 SCF Done:  E(RHF) =  -264.221883528     A.U. after    8 cycles
 E2 =    -0.8643879714D+00 EUMP2 =    -0.26508627149974D+03
 E2 =    -0.8643879714D+00 EUMP2 =    -0.26508627149974D+03
 SCF Done:  E(RHF) =  -264.221887576     A.U. after    8 cycles
 E2 =    -0.8643830079D+00 EUMP2 =    -0.26508627058392D+03
 E2 =    -0.8643830079D+00 EUMP2 =    -0.26508627058392D+03
 SCF Done:  E(RHF) =  -264.221887908     A.U. after    8 cycles
 E2 =    -0.8643828353D+00 EUMP2 =    -0.26508627074293D+03
 E2 =    -0.8643828353D+00 EUMP2 =    -0.26508627074293D+03
 SCF Done:  E(RHF) =  -264.222035020     A.U. after    8 cycles
 E2 =    -0.8642306440D+00 EUMP2 =    -0.26508626566412D+03
 E2 =    -0.8642306440D+00 EUMP2 =    -0.26508626566412D+03
 SCF Done:  E(RHF) =  -264.221731132     A.U. after    8 cycles
 E2 =    -0.8645375037D+00 EUMP2 =    -0.26508626863585D+03
 E2 =    -0.8645375037D+00 EUMP2 =    -0.26508626863585D+03

 Alpha  occ. eigenvalues --  -20.50893 -15.58804 -15.57068 -11.34738 -11.23675
 Alpha  occ. eigenvalues --   -1.35378  -1.18891  -1.17577  -0.98709  -0.77723
 Alpha  occ. eigenvalues --   -0.70219  -0.65938  -0.65876  -0.64299  -0.59513
 Alpha  occ. eigenvalues --   -0.56628  -0.54481  -0.50349  -0.46903  -0.40490
 Alpha  occ. eigenvalues --   -0.39037
 Alpha virt. eigenvalues --    0.02056   0.04245   0.04583   0.05072   0.06490
 Alpha virt. eigenvalues --    0.07429   0.08241   0.08821   0.11890   0.13133
 Alpha virt. eigenvalues --    0.14573   0.15355   0.16128   0.16405   0.17714

 Mulliken charges:
               1
     1  C    0.465592
     2  O   -0.657654
     3  N    0.022662
     4  C    0.448633
     5  H    0.008478
     6  H    0.008531
     7  H   -0.230649
     8  N   -0.157331
     9  H    0.005510
    10  H    0.046985
    11  H    0.047043
    12  H    0.044755
    13  H   -0.052555
 Sum of Mulliken charges =  -0.00000

 Dipole moment (field-independent basis, Debye):
    X=              6.3665    Y=              0.7996    Z=             -0.0003  Tot=              6.4166
 Quadrupole moment (field-independent basis, Debye-Ang):
   XX=            -32.9350   YY=            -28.8913   ZZ=            -32.4124
   XY=             -2.2886   XZ=              0.0004   YZ=              0.0006

  Exact polarizability:      67.337      -0.584      55.613       0.000      -0.000      42.503
 Approx polarizability:      47.570      -0.199      42.745      -0.000       0.000      38.645

                      1                      2                      3
                      A                      A                      A
 Frequencies --     32.7492                47.4868                52.5072
 Red. masses --      1.2019                 1.6134                 1.4628
 Frc consts  --      0.0008                 0.0021                 0.0024
 IR Inten    --      0.4440                 0.1445                 1.4340

                      4                      5                      6
                      A                      A                      A
 Frequencies --     69.0506               153.8656               196.2238
 Red. masses --      2.8995                 4.6496                 1.1635
 Frc consts  --      0.0081                 0.0649                 0.0264
 IR Inten    --      0.4651                 3.4901                 3.0084

                      7                      8                      9
                      A                      A                      A
 Frequencies --    246.0386               441.2264               480.6328
 Red. masses --      1.1822                 2.5784                 1.0973
 Frc consts  --      0.0422                 0.2958                 0.1494
 IR Inten    --     44.5085                 8.0381               162.9154

                     10                     11                     12
                      A                      A                      A
 Frequencies --    549.5824               569.7900               799.1108
 Red. masses --      3.3154                 2.3908                 1.1047
 Frc consts  --      0.5900                 0.4573                 0.4156
 IR Inten    --     14.1780                36.6242                 8.5936

                     13                     14                     15
                      A                      A                      A
 Frequencies --    867.0451               994.9541              1044.0497
 Red. masses --      3.1611                 1.4518                 1.7111
 Frc consts  --      1.4001                 0.8467                 1.0989
 IR Inten    --      2.0366                 8.0447                 0.7477

                     16                     17                     18
                      A                      A                      A
 Frequencies --   1120.7990              1145.6152              1342.5576
 Red. masses --      1.1811                 1.6440                 1.4952
 Frc consts  --      0.8742                 1.2713                 1.5879
 IR Inten    --    150.2230                 3.7037                34.3199

                     19                     20                     21
                      A                      A                      A
 Frequencies --   1399.5028              1465.4109              1482.6406
 Red. masses --      1.9004                 1.0449                 1.2114
 Frc consts  --      2.1930                 1.3220                 1.5689
 IR Inten    --    129.6409                 5.3013                13.5939

                     22                     23                     24
                      A                      A                      A
 Frequencies --   1644.3817              1651.9856              1663.3852
 Red. masses --      1.1030                 1.0628                 1.2241
 Frc consts  --      1.7573                 1.7088                 1.9955
 IR Inten    --     46.9430                18.0596                25.4667

                     25                     26                     27
                      A                      A                      A
 Frequencies --   1738.9327              3078.1724              3177.7536
 Red. masses --      6.9195                 1.0351                 1.1009
 Frc consts  --     12.3280                 5.7786                 6.5497
 IR Inten    --    415.6466                 9.1916                 4.8968

                     28                     29                     30
                      A                      A                      A
 Frequencies --   3184.3650              3462.7465              3474.0314
 Red. masses --      1.1037                 1.0536                 1.0329
 Frc consts  --      6.5942                 7.4434                 7.3444
 IR Inten    --     17.2838               385.7985                82.3363

                     31                     32                     33
                      A                      A                      A
 Frequencies --   3622.0837              3622.3732              3693.3890
 Red. masses --      1.0882                 1.0887                 1.0969
 Frc consts  --      8.4119                 8.4164                 8.8159
 IR Inten    --     10.1483                11.2465               111.0879

 - Thermochemistry -
 -------------------
 Temperature   298.150 Kelvin.  Pressure   1.00000 Atm.
 Atom     1 has atomic number  6 and mass  12.00000

 Molecular mass:    76.06366 amu.
 Principal axes and moments of inertia in atomic units:
                           1         2         3
     Eigenvalues --   203.83683 916.036361098.91787
           X            0.99992  -0.01258   0.00000
           Y            0.01258   0.99992   0.00001
           Z           -0.00000  -0.00001   1.00000
 This molecule is an asymmetric top.
 Rotational symmetry number  1.
 Rotational temperatures (Kelvin)      0.42492     0.09455     0.07882
 Rotational constants (GHZ):           8.85385     1.97016     1.64229
 Zero-point vibrational energy     290180.8 (Joules/Mol)
                                   69.35487 (Kcal/Mol)
 Warning -- explicit consideration of  11 degrees of freedom as
           vibrations may cause significant error
 Vibrational temperatures:     47.12    68.32    75.55    99.35   221.38
          (Kelvin)            282.32   353.99   634.83   691.52   790.73
                              819.80  1149.74  1247.48  1431.52  1502.15
                             1612.58  1648.28  1931.64  2013.57  2108.40
                             2133.19  2365.90  2376.84  2393.24  2501.94
                             4428.80  4572.08  4581.59  4982.12  4998.36
                             5211.37  5211.79  5313.96

 Zero-point correction=                           0.110524 (Hartree/Particle)
 Thermal correction to Energy=                    0.119556
 Thermal correction to Enthalpy=                  0.120500
 Thermal correction to Gibbs Free Energy=         0.075329
 Sum of electronic and zero-point Energies=           -264.975835
 Sum of electronic and thermal Energies=              -264.966803
 Sum of electronic and thermal Enthalpies=            -264.965859
 Sum of electronic and thermal Free Energies=         -265.011030

                     E (Thermal)             CV                S
                      KCal/Mol        Cal/Mol-Kelvin    Cal/Mol-Kelvin
 Total                   75.022             27.272             95.070
 Electronic               0.000              0.000              0.000
 Translational            0.889              2.981             38.902
 Rotational               0.889              2.981             26.820
 Vibrational             73.245             21.310             29.347
 Vibration     1          0.594              1.983              5.656
 Vibration     2          0.595              1.979              4.919
 Vibration     3          0.596              1.977              4.721
 Vibration     4          0.598              1.969              4.180
 Vibration     5          0.619              1.898              2.624
 Vibration     6          0.636              1.845              2.168
 Vibration     7          0.661              1.769              1.759
 Vibration     8          0.801              1.380              0.823
 Vibration     9          0.837              1.293              0.708
 Vibration    10          0.905              1.141              0.545
 Vibration    11          0.926              1.097              0.505

 ## DEPERTURBED TRANSITIONS MOMENTS ##

 Electric dipole : Fundamental Bands
 ------------------------------------------------------------------------

 ## AFTER VARIATIONAL CORRECTION

 Electric dipole : Fundamental Bands
 ------------------------------------------------------------------------

                           ! Non-Optimized Parameters !
 Normal termination of Gaussian 16 at Sat Mar 29 21:58:21 2025.
