 Gaussian 16, Revision C.01,
 Gaussian 16:  EM64L-G16RevC.01  3-Jul-2019

 ------------------------------------------------------
 # MP2/aug-cc-pVDZ opt=(tight) freq=(vibrot,anharmonic)
 ------------------------------------------------------

 ----
 blah
 ----
 Symbolic Z-matrix:
 Charge =  0 Multiplicity = 1

 SCF Done:  E(RHF) =  -225.174017671     A.U. after   13 cycles
 E2 =    -0.7167794419D+00 EUMP2 =    -0.22589079711243D+03
 Optimization completed.
    -- Stationary point found.
 Normal termination of Gaussian 16 at Mon Apr  7 13:09:52 2025.

 ----------------------------------------------------------------------
 #N Geom=AllCheck Guess=TCheck SCRF=Check GenChk RMP2(FC)/Aug-CC-pVDZ F
 req
 ----------------------------------------------------------------------

 Structure from the checkpoint file:  "/scr/Gau-26883.chk"
 ----
 blah
 ----
 Charge =  0 Multiplicity = 1

                         Standard orientation:
 ---------------------------------------------------------------------
 Center     Atomic      Atomic             Coordinates (Angstroms)
 Number     Number       Type             X           Y           Z
 ---------------------------------------------------------------------
      1          6           0        1.184426   -0.341814   -0.000364
      2          8           0        2.403586   -0.158701    0.000460
      3          7           0        0.239306    0.637699   -0.000312
      4          7           0       -2.741426   -0.145012   -0.000111
      5          1           0       -3.394928    0.633585   -0.089256
      6          1           0       -2.998564   -0.632115    0.858945
      7          1           0       -2.959191   -0.784238   -0.765193
      8          1           0        0.738821   -1.360188   -0.001126
      9          1           0        0.551355    1.601200   -0.000184
     10          1           0       -0.757901    0.413434   -0.001715
 ---------------------------------------------------------------------

 SCF Done:  E(RHF) =  -225.174017671     A.U. after    1 cycles
 E2 =    -0.7167794420D+00 EUMP2 =    -0.22589079711250D+03
 E2 =    -0.7167794420D+00 EUMP2 =    -0.22589079711250D+03
 SCF Done:  E(RHF) =  -225.174016555     A.U. after    8 cycles
 E2 =    -0.7167805616D+00 EUMP2 =    -0.22589079711672D+03
 E2 =    -0.7167805616D+00 EUMP2 =    -0.22589079711672D+03
 SCF Done:  E(RHF) =  -225.174016597     A.U. after    8 cycles
 E2 =    -0.7167805130D+00 EUMP2 =    -0.22589079711050D+03
 E2 =    -0.7167805130D+00 EUMP2 =    -0.22589079711050D+03
 SCF Done:  E(RHF) =  -225.174019106     A.U. after    7 cycles
 E2 =    -0.7167779830D+00 EUMP2 =    -0.22589079708939D+03
 E2 =    -0.7167779830D+00 EUMP2 =    -0.22589079708939D+03
 SCF Done:  E(RHF) =  -225.174015716     A.U. after    7 cycles
 E2 =    -0.7167813719D+00 EUMP2 =    -0.22589079708808D+03
 E2 =    -0.7167813719D+00 EUMP2 =    -0.22589079708808D+03
 SCF Done:  E(RHF) =  -225.174016997     A.U. after    9 cycles
 E2 =    -0.7167800750D+00 EUMP2 =    -0.22589079707230D+03
 E2 =    -0.7167800750D+00 EUMP2 =    -0.22589079707230D+03
 SCF Done:  E(RHF) =  -225.174017001     A.U. after    9 cycles
 E2 =    -0.7167800739D+00 EUMP2 =    -0.22589079707478D+03
 E2 =    -0.7167800739D+00 EUMP2 =    -0.22589079707478D+03
 SCF Done:  E(RHF) =  -225.174034314     A.U. after    7 cycles
 E2 =    -0.7167626305D+00 EUMP2 =    -0.22589079694492D+03
 E2 =    -0.7167626305D+00 EUMP2 =    -0.22589079694492D+03
 SCF Done:  E(RHF) =  -225.174000448     A.U. after    7 cycles
 E2 =    -0.7167964773D+00 EUMP2 =    -0.22589079692482D+03
 E2 =    -0.7167964773D+00 EUMP2 =    -0.22589079692482D+03
 E2 =    -0.7167807664D+00 EUMP2 =    -0.22589079683094D+03
 SCF Done:  E(RHF) =  -225.173461489     A.U. after   10 cycles
 E2 =    -0.7172571300D+00 EUMP2 =    -0.22589071861881D+03
 E2 =    -0.7172571300D+00 EUMP2 =    -0.22589071861881D+03
 SCF Done:  E(RHF) =  -225.174410772     A.U. after   10 cycles
 E2 =    -0.7163046691D+00 EUMP2 =    -0.22589071544128D+03
 E2 =    -0.7163046691D+00 EUMP2 =    -0.22589071544128D+03
 SCF Done:  E(RHF) =  -225.174324373     A.U. after    8 cycles
 E2 =    -0.7163901187D+00 EUMP2 =    -0.22589071449142D+03
 E2 =    -0.7163901187D+00 EUMP2 =    -0.22589071449142D+03
 SCF Done:  E(RHF) =  -225.173545369     A.U. after    8 cycles
 E2 =    -0.7171711120D+00 EUMP2 =    -0.22589071648146D+03
 E2 =    -0.7171711120D+00 EUMP2 =    -0.22589071648146D+03
 SCF Done:  E(RHF) =  -225.173928764     A.U. after    8 cycles
 E2 =    -0.7167802672D+00 EUMP2 =    -0.22589070903132D+03
 E2 =    -0.7167802672D+00 EUMP2 =    -0.22589070903132D+03
 SCF Done:  E(RHF) =  -225.173930155     A.U. after    8 cycles
 E2 =    -0.7167774710D+00 EUMP2 =    -0.22589070762566D+03
 E2 =    -0.7167774710D+00 EUMP2 =    -0.22589070762566D+03
 SCF Done:  E(RHF) =  -225.173928907     A.U. after    8 cycles
 E2 =    -0.7167789757D+00 EUMP2 =    -0.22589070788246D+03
 E2 =    -0.7167789757D+00 EUMP2 =    -0.22589070788246D+03
 SCF Done:  E(RHF) =  -225.173929987     A.U. after    8 cycles
 E2 =    -0.7167787224D+00 EUMP2 =    -0.22589070870981D+03
 E2 =    -0.7167787224D+00 EUMP2 =    -0.22589070870981D+03
 SCF Done:  E(RHF) =  -225.173768765     A.U. after    8 cycles
 E2 =    -0.7169379574D+00 EUMP2 =    -0.22589070672239D+03
 E2 =    -0.7169379574D+00 EUMP2 =    -0.22589070672239D+03
 SCF Done:  E(RHF) =  -225.174081562     A.U. after    8 cycles
 E2 =    -0.7166219728D+00 EUMP2 =    -0.22589070353474D+03
 E2 =    -0.7166219728D+00 EUMP2 =    -0.22589070353474D+03

 Alpha  occ. eigenvalues --  -20.52148 -15.58958 -15.57677 -11.35098  -1.35956
 Alpha  occ. eigenvalues --   -1.19626  -1.17757  -0.83009  -0.72490  -0.66016
 Alpha  occ. eigenvalues --   -0.66009  -0.65188  -0.58689  -0.54563  -0.47195
 Alpha  occ. eigenvalues --   -0.41573  -0.39616
 Alpha virt. eigenvalues --    0.02013   0.04160   0.04847   0.05360   0.06754
 Alpha virt. eigenvalues --    0.08787   0.11220   0.12578   0.14303   0.15714
 Alpha virt. eigenvalues --    0.16554   0.17458   0.18875   0.19158   0.19518

 Mulliken charges:
               1
     1  C    0.762487
     2  O   -0.531089
     3  N    0.010316
     4  N   -0.116833
     5  H    0.022809
     6  H    0.029677
     7  H    0.028180
     8  H   -0.179273
     9  H   -0.085798
    10  H    0.059524
 Sum of Mulliken charges =  -0.00000

 Dipole moment (field-independent basis, Debye):
    X=             -6.4582    Y=              0.1098    Z=              0.0030  Tot=              6.4591
 Quadrupole moment (field-independent basis, Debye-Ang):
   XX=            -27.7404   YY=            -22.1139   ZZ=            -26.0161
   XY=              1.5418   XZ=             -0.0088   YZ=              0.0022

  Exact polarizability:      56.823      -1.253      40.216       0.002      -0.002      32.322
 Approx polarizability:      38.101      -0.476      32.217       0.008       0.003      28.420

                      1                      2                      3
                      A                      A                      A
 Frequencies --      3.4147                59.1822                75.2789
 Red. masses --      1.1114                 3.2461                 2.5863
 Frc consts  --      0.0000                 0.0067                 0.0086
 IR Inten    --      0.0766                 1.7551                 0.8717

                      4                      5                      6
                      A                      A                      A
 Frequencies --    162.2078               205.7743               252.6040
 Red. masses --      4.3798                 1.1721                 1.2028
 Frc consts  --      0.0679                 0.0292                 0.0452
 IR Inten    --      7.1417                 4.8115                47.0398

                      7                      8                      9
                      A                      A                      A
 Frequencies --    518.1584               583.9389               812.6600
 Red. masses --      1.3236                 2.6552                 1.0637
 Frc consts  --      0.2094                 0.5334                 0.4139
 IR Inten    --    211.4342                13.9028                15.6392

                     10                     11                     12
                      A                      A                      A
 Frequencies --   1034.7824              1094.5301              1118.0053
 Red. masses --      1.5231                 1.6632                 1.1864
 Frc consts  --      0.9609                 1.1739                 0.8737
 IR Inten    --      5.6015                 7.1190               144.1670

                     13                     14                     15
                      A                      A                      A
 Frequencies --   1290.6381              1403.1796              1642.3952
 Red. masses --      2.6709                 1.2236                 1.1113
 Frc consts  --      2.6213                 1.4194                 1.7663
 IR Inten    --    102.4737                 9.6291                32.6582

                     16                     17                     18
                      A                      A                      A
 Frequencies --   1648.0083              1659.2744              1755.3838
 Red. masses --      1.0627                 1.1853                 5.9817
 Frc consts  --      1.7005                 1.9227                10.8597
 IR Inten    --     16.7716                 4.9455               473.2310

                     19                     20                     21
                      A                      A                      A
 Frequencies --   3016.8112              3442.1918              3475.4777
 Red. masses --      1.0855                 1.0597                 1.0287
 Frc consts  --      5.8208                 7.3981                 7.3212
 IR Inten    --     89.7735               546.9736                14.3511

                     22                     23                     24
                      A                      A                      A
 Frequencies --   3624.5146              3625.1296              3689.0356
 Red. masses --      1.0884                 1.0886                 1.0954
 Frc consts  --      8.4245                 8.4289                 8.7829
 IR Inten    --     11.2660                11.7729               116.2704

 - Thermochemistry -
 -------------------
 Temperature   298.150 Kelvin.  Pressure   1.00000 Atm.
 Atom     1 has atomic number  6 and mass  12.00000

 Molecular mass:    62.04801 amu.
 Principal axes and moments of inertia in atomic units:
                           1         2         3
     Eigenvalues --    54.17885 879.71107 924.30732
           X            0.99998   0.00706  -0.00003
           Y           -0.00706   0.99998   0.00008
           Z            0.00003  -0.00008   1.00000
 This molecule is an asymmetric top.
 Rotational symmetry number  1.
 Rotational temperatures (Kelvin)      1.59867     0.09846     0.09371
 Rotational constants (GHZ):          33.31080     2.05152     1.95253
 Zero-point vibrational energy     216479.7 (Joules/Mol)
                                   51.73989 (Kcal/Mol)
 Warning -- explicit consideration of   8 degrees of freedom as
           vibrations may cause significant error
 Vibrational temperatures:      4.91    85.15   108.31   233.38   296.06
          (Kelvin)            363.44   745.51   840.16  1169.24  1488.82
                             1574.78  1608.56  1856.94  2018.86  2363.04
                             2371.12  2387.33  2525.61  4340.52  4952.55
                             5000.44  5214.87  5215.75  5307.70

 Zero-point correction=                           0.082453 (Hartree/Particle)
 Thermal correction to Energy=                    0.090042
 Thermal correction to Enthalpy=                  0.090986
 Thermal correction to Gibbs Free Energy=         0.048174
 Sum of electronic and zero-point Energies=           -225.808344
 Sum of electronic and thermal Energies=              -225.800755
 Sum of electronic and thermal Enthalpies=            -225.799811
 Sum of electronic and thermal Free Energies=         -225.842623

                     E (Thermal)             CV                S
                      KCal/Mol        Cal/Mol-Kelvin    Cal/Mol-Kelvin
 Total                   56.502             21.582             90.106
 Electronic               0.000              0.000              0.000
 Translational            0.889              2.981             38.295
 Rotational               0.889              2.981             25.291
 Vibrational             54.725             15.621             26.519
 Vibration     1          0.592              1.987             10.146
 Vibration     2          0.597              1.974              4.484
 Vibration     3          0.599              1.965              4.010
 Vibration     4          0.622              1.889              2.524
 Vibration     5          0.640              1.832              2.081
 Vibration     6          0.664              1.758              1.712
 Vibration     7          0.873              1.210              0.614
 Vibration     8          0.941              1.066              0.478

 ## DEPERTURBED TRANSITIONS MOMENTS ##

 Electric dipole : Fundamental Bands
 ------------------------------------------------------------------------

 ## AFTER VARIATIONAL CORRECTION

 Electric dipole : Fundamental Bands
 ------------------------------------------------------------------------

                           ! Non-Optimized Parameters !
 Normal termination of Gaussian 16 at Mon Apr  7 14:14:29 2025.
