 Gaussian 16, Revision C.01,
 Gaussian 16:  EM64L-G16RevC.01  3-Jul-2019

 ----------------------------------------------
 # MP2/aug-cc-pVTZ opt freq=(vibrot,anharmonic)
 ----------------------------------------------

 ----
 blah
 ----
 Symbolic Z-matrix:
 Charge =  0 Multiplicity = 1

 SCF Done:  E(RHF) =  -245.067656467     A.U. after   12 cycles
 E2 =    -0.8876078990D+00 EUMP2 =    -0.24595526436600D+03
 SCF Done:  E(RHF) =  -245.068731286     A.U. after   10 cycles
 E2 =    -0.8888417123D+00 EUMP2 =    -0.24595757299875D+03
 SCF Done:  E(RHF) =  -245.069272201     A.U. after    9 cycles
 E2 =    -0.8885736038D+00 EUMP2 =    -0.24595784580503D+03
 SCF Done:  E(RHF) =  -245.070146453     A.U. after    9 cycles
 E2 =    -0.8880039029D+00 EUMP2 =    -0.24595815035568D+03
 SCF Done:  E(RHF) =  -245.070532605     A.U. after    9 cycles
 E2 =    -0.8877039313D+00 EUMP2 =    -0.24595823653638D+03
 SCF Done:  E(RHF) =  -245.070704252     A.U. after    8 cycles
 E2 =    -0.8875566386D+00 EUMP2 =    -0.24595826089063D+03
 SCF Done:  E(RHF) =  -245.070963688     A.U. after    9 cycles
 E2 =    -0.8873370051D+00 EUMP2 =    -0.24595830069292D+03
 SCF Done:  E(RHF) =  -245.071071345     A.U. after    9 cycles
 E2 =    -0.8872855207D+00 EUMP2 =    -0.24595835686587D+03
 SCF Done:  E(RHF) =  -245.071202232     A.U. after   10 cycles
 E2 =    -0.8872435532D+00 EUMP2 =    -0.24595844578557D+03
 SCF Done:  E(RHF) =  -245.071055218     A.U. after    9 cycles
 E2 =    -0.8874723013D+00 EUMP2 =    -0.24595852751901D+03
 E2 =    -0.8876041424D+00 EUMP2 =    -0.24595857145979D+03
 E2 =    -0.8876646701D+00 EUMP2 =    -0.24595855635346D+03
 E2 =    -0.8876725901D+00 EUMP2 =    -0.24595858195201D+03
 E2 =    -0.8877105589D+00 EUMP2 =    -0.24595858691270D+03
 E2 =    -0.8876356793D+00 EUMP2 =    -0.24595859183422D+03
 E2 =    -0.8876811195D+00 EUMP2 =    -0.24595859247379D+03
 E2 =    -0.8876155004D+00 EUMP2 =    -0.24595859385975D+03
 E2 =    -0.8876343003D+00 EUMP2 =    -0.24595859547861D+03
 E2 =    -0.8876394836D+00 EUMP2 =    -0.24595859565211D+03
 E2 =    -0.8876388204D+00 EUMP2 =    -0.24595859567321D+03
 Optimization completed.
    -- Stationary point found.
 Normal termination of Gaussian 16 at Sun Mar 30 08:37:50 2025.

 ----------------------------------------------------------------------
 #N Geom=AllCheck Guess=TCheck SCRF=Check GenChk RMP2(FC)/Aug-CC-pVTZ F
 req
 ----------------------------------------------------------------------

 Structure from the checkpoint file:  "/scr/Gau-98132.chk"
 ----
 blah
 ----
 Charge =  0 Multiplicity = 1

                         Standard orientation:
 ---------------------------------------------------------------------
 Center     Atomic      Atomic             Coordinates (Angstroms)
 Number     Number       Type             X           Y           Z
 ---------------------------------------------------------------------
      1          6           0        1.156865   -0.344148   -0.000373
      2          8           0        2.365261   -0.168116    0.000591
      3          7           0        0.224814    0.636346   -0.000452
      4          8           0       -2.686843   -0.118421    0.000066
      5          1           0        0.707505   -1.348550   -0.001204
      6          1           0       -3.210142   -0.379615    0.763616
      7          1           0       -3.212601   -0.382159   -0.760915
      8          1           0       -0.760303    0.419573   -0.001469
      9          1           0        0.533304    1.593514    0.000114
 ---------------------------------------------------------------------

 SCF Done:  E(RHF) =  -245.070987217     A.U. after    8 cycles
 E2 =    -0.8875460427D+00 EUMP2 =    -0.24595853325942D+03
 E2 =    -0.8875460427D+00 EUMP2 =    -0.24595853325942D+03
 SCF Done:  E(RHF) =  -245.070778031     A.U. after    8 cycles
 E2 =    -0.8877578457D+00 EUMP2 =    -0.24595853587685D+03
 E2 =    -0.8877578457D+00 EUMP2 =    -0.24595853587685D+03
 SCF Done:  E(RHF) =  -245.071245491     A.U. after    8 cycles
 E2 =    -0.8872637619D+00 EUMP2 =    -0.24595850925331D+03
 E2 =    -0.8872637619D+00 EUMP2 =    -0.24595850925331D+03
 SCF Done:  E(RHF) =  -245.070471910     A.U. after    8 cycles
 E2 =    -0.8880395889D+00 EUMP2 =    -0.24595851149932D+03
 E2 =    -0.8880395889D+00 EUMP2 =    -0.24595851149932D+03
 SCF Done:  E(RHF) =  -245.070821024     A.U. after    7 cycles
 E2 =    -0.8876822806D+00 EUMP2 =    -0.24595850330422D+03
 E2 =    -0.8876822806D+00 EUMP2 =    -0.24595850330422D+03
 SCF Done:  E(RHF) =  -245.070881852     A.U. after    7 cycles
 E2 =    -0.8876198031D+00 EUMP2 =    -0.24595850165522D+03
 E2 =    -0.8876198031D+00 EUMP2 =    -0.24595850165522D+03
 SCF Done:  E(RHF) =  -245.070273473     A.U. after    7 cycles
 E2 =    -0.8882254638D+00 EUMP2 =    -0.24595849893727D+03
 E2 =    -0.8882254638D+00 EUMP2 =    -0.24595849893727D+03
 SCF Done:  E(RHF) =  -245.071419088     A.U. after    7 cycles
 E2 =    -0.8870770790D+00 EUMP2 =    -0.24595849616678D+03
 E2 =    -0.8870770790D+00 EUMP2 =    -0.24595849616678D+03
 SCF Done:  E(RHF) =  -245.070842126     A.U. after    7 cycles
 E2 =    -0.8876490068D+00 EUMP2 =    -0.24595849113328D+03
 E2 =    -0.8876490068D+00 EUMP2 =    -0.24595849113328D+03
 SCF Done:  E(RHF) =  -245.070841984     A.U. after    7 cycles
 E2 =    -0.8876491466D+00 EUMP2 =    -0.24595849113108D+03
 E2 =    -0.8876491466D+00 EUMP2 =    -0.24595849113108D+03

 Alpha  occ. eigenvalues --  -20.60364 -20.51234 -15.57207 -11.33937  -1.38928
 Alpha  occ. eigenvalues --   -1.36438  -1.20059  -0.83383  -0.75281  -0.73631
 Alpha  occ. eigenvalues --   -0.65674  -0.62702  -0.58419  -0.55278  -0.54829
 Alpha  occ. eigenvalues --   -0.42000  -0.40179
 Alpha virt. eigenvalues --    0.01365   0.03721   0.04050   0.04543   0.07134
 Alpha virt. eigenvalues --    0.09431   0.10491   0.11170   0.12799   0.14324
 Alpha virt. eigenvalues --    0.14597   0.15353   0.16411   0.16710   0.18106

 Mulliken charges:
               1
     1  C   -0.148650
     2  O   -0.562444
     3  N   -0.294107
     4  O   -0.412254
     5  H    0.541413
     6  H    0.201870
     7  H    0.214183
     8  H    0.308622
     9  H    0.151368
 Sum of Mulliken charges =  -0.00000

 Dipole moment (field-independent basis, Debye):
    X=             -6.3201    Y=             -0.2296    Z=             -0.0143  Tot=              6.3242
 Quadrupole moment (field-independent basis, Debye-Ang):
   XX=            -24.2360   YY=            -22.5151   ZZ=            -23.7077
   XY=              4.0065   XZ=              0.0521   YZ=              0.0174

  Exact polarizability:      48.707      -1.787      36.548       0.079       0.031      29.390
 Approx polarizability:      33.868      -0.091      27.943       0.060       0.030      25.552

                      1                      2                      3
                      A                      A                      A
 Frequencies --     49.6291                60.2135                83.5548
 Red. masses --      4.1453                 2.4311                 1.1903
 Frc consts  --      0.0060                 0.0052                 0.0049
 IR Inten    --      3.0192                 0.2973               227.0859

                      4                      5                      6
                      A                      A                      A
 Frequencies --    107.4339               152.4212               157.7158
 Red. masses --      1.0921                 5.6760                 1.1771
 Frc consts  --      0.0074                 0.0777                 0.0173
 IR Inten    --      6.0810                 6.2175                 5.3913

                      7                      8                      9
                      A                      A                      A
 Frequencies --    451.3773               577.6798               744.6142
 Red. masses --      1.2657                 2.5136                 1.0982
 Frc consts  --      0.1519                 0.4942                 0.3587
 IR Inten    --    249.7854                15.5638                 2.8660

                     10                     11                     12
                      A                      A                      A
 Frequencies --   1052.9381              1076.9850              1292.0815
 Red. masses --      1.5280                 1.7178                 2.7454
 Frc consts  --      0.9981                 1.1739                 2.7004
 IR Inten    --      4.7512                 4.7200               105.4804

                     13                     14                     15
                      A                      A                      A
 Frequencies --   1417.9147              1631.1789              1636.2507
 Red. masses --      1.2139                 1.0868                 1.2373
 Frc consts  --      1.4379                 1.7038                 1.9517
 IR Inten    --      8.3968                67.8315                34.6150

                     16                     17                     18
                      A                      A                      A
 Frequencies --   1775.3111              3016.9667              3561.2525
 Red. masses --      6.8187                 1.0860                 1.0484
 Frc consts  --     12.6619                 5.8240                 7.8341
 IR Inten    --    450.9006                79.6839               267.1989

                     19                     20                     21
                      A                      A                      A
 Frequencies --   3721.6159              3818.3452              3940.8174
 Red. masses --      1.1042                 1.0448                 1.0820
 Frc consts  --      9.0110                 8.9748                 9.9006
 IR Inten    --    163.9900                13.0256               100.6060

 - Thermochemistry -
 -------------------
 Temperature   298.150 Kelvin.  Pressure   1.00000 Atm.
 Atom     1 has atomic number  6 and mass  12.00000

 Molecular mass:    63.03203 amu.
 Principal axes and moments of inertia in atomic units:
                           1         2         3
     Eigenvalues --    49.22080 873.18878 914.04466
           X            0.99996   0.00874  -0.00003
           Y           -0.00874   0.99996   0.00018
           Z            0.00003  -0.00018   1.00000
 This molecule is an asymmetric top.
 Rotational symmetry number  1.
 Rotational temperatures (Kelvin)      1.75970     0.09919     0.09476
 Rotational constants (GHZ):          36.66623     2.06684     1.97446
 Zero-point vibrational energy     181391.5 (Joules/Mol)
                                   43.35362 (Kcal/Mol)
 Warning -- explicit consideration of   8 degrees of freedom as
           vibrations may cause significant error
 Vibrational temperatures:     71.41    86.63   120.22   154.57   219.30
          (Kelvin)            226.92   649.43   831.15  1071.33  1514.94
                             1549.54  1859.02  2040.06  2346.90  2354.20
                             2554.28  4340.74  5123.85  5354.58  5493.75
                             5669.96

 Zero-point correction=                           0.069088 (Hartree/Particle)
 Thermal correction to Energy=                    0.076941
 Thermal correction to Enthalpy=                  0.077885
 Thermal correction to Gibbs Free Energy=         0.036603
 Sum of electronic and zero-point Energies=           -245.889508
 Sum of electronic and thermal Energies=              -245.881655
 Sum of electronic and thermal Enthalpies=            -245.880711
 Sum of electronic and thermal Free Energies=         -245.921993

                     E (Thermal)             CV                S
                      KCal/Mol        Cal/Mol-Kelvin    Cal/Mol-Kelvin
 Total                   48.281             21.790             86.886
 Electronic               0.000              0.000              0.000
 Translational            0.889              2.981             38.342
 Rotational               0.889              2.981             25.177
 Vibrational             46.504             15.828             23.366
 Vibration     1          0.595              1.978              4.832
 Vibration     2          0.597              1.973              4.450
 Vibration     3          0.600              1.960              3.806
 Vibration     4          0.606              1.943              3.315
 Vibration     5          0.619              1.900              2.642
 Vibration     6          0.621              1.894              2.577
 Vibration     7          0.810              1.358              0.792
 Vibration     8          0.934              1.080              0.490

 ## DEPERTURBED TRANSITIONS MOMENTS ##

 Electric dipole : Fundamental Bands
 ------------------------------------------------------------------------

 ## AFTER VARIATIONAL CORRECTION

 Electric dipole : Fundamental Bands
 ------------------------------------------------------------------------

                           ! Non-Optimized Parameters !
 Normal termination of Gaussian 16 at Sun Mar 30 23:31:48 2025.
