 Gaussian 16, Revision C.01,
 Gaussian 16:  EM64L-G16RevC.01  3-Jul-2019

 ----------------------------------------------
 # MP2/aug-cc-pVDZ opt freq=(vibrot,anharmonic)
 ----------------------------------------------

 ----
 blah
 ----
 Symbolic Z-matrix:
 Charge =  0 Multiplicity = 1

 SCF Done:  E(RHF) =  -245.007501774     A.U. after   13 cycles
 E2 =    -0.7323606905D+00 EUMP2 =    -0.24573986246493D+03
 SCF Done:  E(RHF) =  -245.006891978     A.U. after   11 cycles
 E2 =    -0.7364330803D+00 EUMP2 =    -0.24574332505804D+03
 SCF Done:  E(RHF) =  -245.007295731     A.U. after    9 cycles
 E2 =    -0.7363038645D+00 EUMP2 =    -0.24574359959550D+03
 SCF Done:  E(RHF) =  -245.007972891     A.U. after   10 cycles
 E2 =    -0.7358992029D+00 EUMP2 =    -0.24574387209367D+03
 SCF Done:  E(RHF) =  -245.008397797     A.U. after   10 cycles
 E2 =    -0.7355753851D+00 EUMP2 =    -0.24574397318248D+03
 SCF Done:  E(RHF) =  -245.008629187     A.U. after    9 cycles
 E2 =    -0.7353760487D+00 EUMP2 =    -0.24574400523587D+03
 SCF Done:  E(RHF) =  -245.008958209     A.U. after   10 cycles
 E2 =    -0.7350858859D+00 EUMP2 =    -0.24574404409455D+03
 SCF Done:  E(RHF) =  -245.009067777     A.U. after   10 cycles
 E2 =    -0.7350108201D+00 EUMP2 =    -0.24574407859723D+03
 SCF Done:  E(RHF) =  -245.009318287     A.U. after   11 cycles
 E2 =    -0.7348273389D+00 EUMP2 =    -0.24574414562617D+03
 SCF Done:  E(RHF) =  -245.009089833     A.U. after   10 cycles
 E2 =    -0.7351693487D+00 EUMP2 =    -0.24574425918195D+03
 E2 =    -0.7353545550D+00 EUMP2 =    -0.24574428968239D+03
 E2 =    -0.7353010419D+00 EUMP2 =    -0.24574428261394D+03
 E2 =    -0.7353523151D+00 EUMP2 =    -0.24574429886101D+03
 E2 =    -0.7353294103D+00 EUMP2 =    -0.24574430436215D+03
 E2 =    -0.7353375600D+00 EUMP2 =    -0.24574430690347D+03
 E2 =    -0.7353101965D+00 EUMP2 =    -0.24574431195844D+03
 E2 =    -0.7353163821D+00 EUMP2 =    -0.24574431610052D+03
 E2 =    -0.7353438070D+00 EUMP2 =    -0.24574431836366D+03
 E2 =    -0.7353712781D+00 EUMP2 =    -0.24574431912889D+03
 E2 =    -0.7353722191D+00 EUMP2 =    -0.24574431972843D+03
 Optimization completed.
    -- Stationary point found.
 Normal termination of Gaussian 16 at Sun Mar 30 02:42:03 2025.

 ----------------------------------------------------------------------
 #N Geom=AllCheck Guess=TCheck SCRF=Check GenChk RMP2(FC)/Aug-CC-pVDZ F
 req
 ----------------------------------------------------------------------

 Structure from the checkpoint file:  "/scr/Gau-73603.chk"
 ----
 blah
 ----
 Charge =  0 Multiplicity = 1

                         Standard orientation:
 ---------------------------------------------------------------------
 Center     Atomic      Atomic             Coordinates (Angstroms)
 Number     Number       Type             X           Y           Z
 ---------------------------------------------------------------------
      1          6           0        1.162077   -0.347770   -0.000412
      2          8           0        2.380356   -0.165729    0.000483
      3          7           0        0.220868    0.637783   -0.000220
      4          8           0       -2.702710   -0.108753    0.000406
      5          1           0        0.711811   -1.363468   -0.001457
      6          1           0       -3.206352   -0.420277    0.763494
      7          1           0       -3.204875   -0.417777   -0.764679
      8          1           0       -0.770444    0.417747   -0.001081
      9          1           0        0.530156    1.601768    0.000621
 ---------------------------------------------------------------------

 SCF Done:  E(RHF) =  -245.009031453     A.U. after    9 cycles
 E2 =    -0.7352279068D+00 EUMP2 =    -0.24574425935930D+03
 E2 =    -0.7352279068D+00 EUMP2 =    -0.24574425935930D+03
 SCF Done:  E(RHF) =  -245.008714860     A.U. after    9 cycles
 E2 =    -0.7355470932D+00 EUMP2 =    -0.24574426195301D+03
 E2 =    -0.7355470932D+00 EUMP2 =    -0.24574426195301D+03
 SCF Done:  E(RHF) =  -245.009281953     A.U. after   10 cycles
 E2 =    -0.7349537066D+00 EUMP2 =    -0.24574423565996D+03
 E2 =    -0.7349537066D+00 EUMP2 =    -0.24574423565996D+03
 SCF Done:  E(RHF) =  -245.008417537     A.U. after   10 cycles
 E2 =    -0.7358212668D+00 EUMP2 =    -0.24574423880389D+03
 E2 =    -0.7358212668D+00 EUMP2 =    -0.24574423880389D+03
 SCF Done:  E(RHF) =  -245.008803025     A.U. after    8 cycles
 E2 =    -0.7354267005D+00 EUMP2 =    -0.24574422972548D+03
 E2 =    -0.7354267005D+00 EUMP2 =    -0.24574422972548D+03
 SCF Done:  E(RHF) =  -245.008881426     A.U. after    8 cycles
 E2 =    -0.7353468137D+00 EUMP2 =    -0.24574422823990D+03
 E2 =    -0.7353468137D+00 EUMP2 =    -0.24574422823990D+03
 SCF Done:  E(RHF) =  -245.009465311     A.U. after    8 cycles
 E2 =    -0.7347576799D+00 EUMP2 =    -0.24574422299057D+03
 E2 =    -0.7347576799D+00 EUMP2 =    -0.24574422299057D+03
 SCF Done:  E(RHF) =  -245.008208856     A.U. after    8 cycles
 E2 =    -0.7360179180D+00 EUMP2 =    -0.24574422677353D+03
 E2 =    -0.7360179180D+00 EUMP2 =    -0.24574422677353D+03
 SCF Done:  E(RHF) =  -245.008832234     A.U. after    8 cycles
 E2 =    -0.7353858108D+00 EUMP2 =    -0.24574421804463D+03
 E2 =    -0.7353858108D+00 EUMP2 =    -0.24574421804463D+03
 SCF Done:  E(RHF) =  -245.008832698     A.U. after    8 cycles
 E2 =    -0.7353852657D+00 EUMP2 =    -0.24574421796416D+03
 E2 =    -0.7353852657D+00 EUMP2 =    -0.24574421796416D+03

 Alpha  occ. eigenvalues --  -20.61490 -20.52471 -15.58280 -11.35420  -1.39073
 Alpha  occ. eigenvalues --   -1.36318  -1.19926  -0.83322  -0.75169  -0.73346
 Alpha  occ. eigenvalues --   -0.65496  -0.62740  -0.58365  -0.54911  -0.54702
 Alpha  occ. eigenvalues --   -0.41975  -0.40031
 Alpha virt. eigenvalues --    0.01829   0.04565   0.04944   0.05364   0.08616
 Alpha virt. eigenvalues --    0.10947   0.12385   0.13107   0.16601   0.17177
 Alpha virt. eigenvalues --    0.18149   0.18665   0.20069   0.20588   0.22051

 Mulliken charges:
               1
     1  C    0.773100
     2  O   -0.522860
     3  N   -0.013202
     4  O   -0.312074
     5  H   -0.158990
     6  H    0.139734
     7  H    0.157402
     8  H   -0.004849
     9  H   -0.058260
 Sum of Mulliken charges =   0.00000

 Dipole moment (field-independent basis, Debye):
    X=             -6.2902    Y=             -0.3911    Z=             -0.0195  Tot=              6.3023
 Quadrupole moment (field-independent basis, Debye-Ang):
   XX=            -25.1052   YY=            -22.6512   ZZ=            -24.0748
   XY=              4.4959   XZ=              0.0661   YZ=              0.0132

  Exact polarizability:      49.113      -1.701      36.291       0.077       0.036      29.259
 Approx polarizability:      34.203       0.043      27.892       0.057       0.032      25.505

                      1                      2                      3
                      A                      A                      A
 Frequencies --     47.8170                64.5292                91.0593
 Red. masses --      3.8862                 2.3451                 1.2064
 Frc consts  --      0.0052                 0.0058                 0.0059
 IR Inten    --      3.2653                 0.1868               228.5471

                      4                      5                      6
                      A                      A                      A
 Frequencies --    105.7802               151.6960               165.0393
 Red. masses --      1.0945                 5.8161                 1.2037
 Frc consts  --      0.0072                 0.0789                 0.0193
 IR Inten    --     12.6906                 6.5862                 4.9195

                      7                      8                      9
                      A                      A                      A
 Frequencies --    472.0895               571.9386               750.4283
 Red. masses --      1.2769                 2.5622                 1.0913
 Frc consts  --      0.1677                 0.4938                 0.3621
 IR Inten    --    246.1272                15.7512                 4.5648

                     10                     11                     12
                      A                      A                      A
 Frequencies --   1035.6271              1074.5323              1287.1227
 Red. masses --      1.5225                 1.7031                 2.7380
 Frc consts  --      0.9621                 1.1586                 2.6726
 IR Inten    --      5.7603                 4.0982               100.8522

                     13                     14                     15
                      A                      A                      A
 Frequencies --   1403.1813              1623.5376              1634.6986
 Red. masses --      1.2125                 1.0858                 1.2559
 Frc consts  --      1.4066                 1.6863                 1.9774
 IR Inten    --      8.6931                70.6336                22.9237

                     16                     17                     18
                      A                      A                      A
 Frequencies --   1757.6244              3025.2801              3552.3471
 Red. masses --      6.2585                 1.0861                 1.0487
 Frc consts  --     11.3914                 5.8567                 7.7968
 IR Inten    --    456.0708                85.6458               260.4293

                     19                     20                     21
                      A                      A                      A
 Frequencies --   3720.1067              3800.8324              3932.3207
 Red. masses --      1.1048                 1.0454                 1.0817
 Frc consts  --      9.0079                 8.8980                 9.8548
 IR Inten    --    162.6769                11.8486                91.2406

 - Thermochemistry -
 -------------------
 Temperature   298.150 Kelvin.  Pressure   1.00000 Atm.
 Atom     1 has atomic number  6 and mass  12.00000

 Molecular mass:    63.03203 amu.
 Principal axes and moments of inertia in atomic units:
                           1         2         3
     Eigenvalues --    49.70793 882.43077 923.73380
           X            0.99995   0.00962   0.00001
           Y           -0.00962   0.99995   0.00010
           Z           -0.00001  -0.00010   1.00000
 This molecule is an asymmetric top.
 Rotational symmetry number  1.
 Rotational temperatures (Kelvin)      1.74246     0.09815     0.09377
 Rotational constants (GHZ):          36.30691     2.04519     1.95375
 Zero-point vibrational energy     181040.4 (Joules/Mol)
                                   43.26969 (Kcal/Mol)
 Warning -- explicit consideration of   8 degrees of freedom as
           vibrations may cause significant error
 Vibrational temperatures:     68.80    92.84   131.01   152.19   218.26
          (Kelvin)            237.45   679.23   822.89  1079.70  1490.04
                             1546.01  1851.88  2018.86  2335.91  2351.97
                             2528.83  4352.70  5111.04  5352.40  5468.55
                             5657.73

 Zero-point correction=                           0.068955 (Hartree/Particle)
 Thermal correction to Energy=                    0.076767
 Thermal correction to Enthalpy=                  0.077711
 Thermal correction to Gibbs Free Energy=         0.036568
 Sum of electronic and zero-point Energies=           -245.675368
 Sum of electronic and thermal Energies=              -245.667556
 Sum of electronic and thermal Enthalpies=            -245.666612
 Sum of electronic and thermal Free Energies=         -245.707754

                     E (Thermal)             CV                S
                      KCal/Mol        Cal/Mol-Kelvin    Cal/Mol-Kelvin
 Total                   48.172             21.763             86.592
 Electronic               0.000              0.000              0.000
 Translational            0.889              2.981             38.342
 Rotational               0.889              2.981             25.208
 Vibrational             46.394             15.802             23.042
 Vibration     1          0.595              1.978              4.906
 Vibration     2          0.597              1.971              4.314
 Vibration     3          0.602              1.956              3.637
 Vibration     4          0.605              1.945              3.345
 Vibration     5          0.619              1.901              2.651
 Vibration     6          0.623              1.885              2.491
 Vibration     7          0.829              1.312              0.732
 Vibration     8          0.928              1.092              0.501

 ## DEPERTURBED TRANSITIONS MOMENTS ##

 Electric dipole : Fundamental Bands
 ------------------------------------------------------------------------

 ## AFTER VARIATIONAL CORRECTION

 Electric dipole : Fundamental Bands
 ------------------------------------------------------------------------

                           ! Non-Optimized Parameters !
 Normal termination of Gaussian 16 at Sun Mar 30 03:27:29 2025.
