 Gaussian 16, Revision C.01,
 Gaussian 16:  EM64L-G16RevC.01  3-Jul-2019

 ----------------------------------------------
 # MP2/aug-cc-pVTZ opt freq=(vibrot,anharmonic)
 ----------------------------------------------

 ----
 blah
 ----
 Symbolic Z-matrix:
 Charge =  0 Multiplicity = 1

 SCF Done:  E(RHF) =  -225.226206594     A.U. after   12 cycles
 E2 =    -0.8611951429D+00 EUMP2 =    -0.22608740173679D+03
 SCF Done:  E(RHF) =  -225.229413800     A.U. after   11 cycles
 E2 =    -0.8617093982D+00 EUMP2 =    -0.22609112319818D+03
 SCF Done:  E(RHF) =  -225.229055635     A.U. after   11 cycles
 E2 =    -0.8622198958D+00 EUMP2 =    -0.22609127553092D+03
 SCF Done:  E(RHF) =  -225.230040640     A.U. after   11 cycles
 E2 =    -0.8616386089D+00 EUMP2 =    -0.22609167924926D+03
 SCF Done:  E(RHF) =  -225.230581217     A.U. after   10 cycles
 E2 =    -0.8613780843D+00 EUMP2 =    -0.22609195930164D+03
 SCF Done:  E(RHF) =  -225.231267905     A.U. after    9 cycles
 E2 =    -0.8608363104D+00 EUMP2 =    -0.22609210421513D+03
 SCF Done:  E(RHF) =  -225.231600143     A.U. after    9 cycles
 E2 =    -0.8605468746D+00 EUMP2 =    -0.22609214701755D+03
 SCF Done:  E(RHF) =  -225.231715349     A.U. after   10 cycles
 E2 =    -0.8604463233D+00 EUMP2 =    -0.22609216167247D+03
 SCF Done:  E(RHF) =  -225.231780718     A.U. after    9 cycles
 E2 =    -0.8603922854D+00 EUMP2 =    -0.22609217300332D+03
 SCF Done:  E(RHF) =  -225.231757138     A.U. after   10 cycles
 E2 =    -0.8604416831D+00 EUMP2 =    -0.22609219882107D+03
 E2 =    -0.8606402542D+00 EUMP2 =    -0.22609221944269D+03
 E2 =    -0.8607264834D+00 EUMP2 =    -0.22609222753950D+03
 E2 =    -0.8607434413D+00 EUMP2 =    -0.22609222881010D+03
 Optimization completed.
    -- Stationary point found.
 Normal termination of Gaussian 16 at Sun Mar 30 09:05:15 2025.

 ----------------------------------------------------------------------
 #N Geom=AllCheck Guess=TCheck SCRF=Check GenChk RMP2(FC)/Aug-CC-pVTZ F
 req
 ----------------------------------------------------------------------

 Structure from the checkpoint file:  "/scr/Gau-78929.chk"
 ----
 blah
 ----
 Charge =  0 Multiplicity = 1

                         Standard orientation:
 ---------------------------------------------------------------------
 Center     Atomic      Atomic             Coordinates (Angstroms)
 Number     Number       Type             X           Y           Z
 ---------------------------------------------------------------------
      1          6           0        1.173309   -0.336912   -0.000200
      2          8           0        2.383774   -0.168564    0.000248
      3          7           0        0.243850    0.643797   -0.000143
      4          7           0       -2.725018   -0.148055   -0.000017
      5          1           0       -3.370691    0.632006   -0.032999
      6          1           0       -2.959357   -0.680661    0.829366
      7          1           0       -2.945164   -0.737129   -0.794361
      8          1           0        0.721378   -1.340897   -0.000645
      9          1           0        0.560163    1.598772   -0.000040
     10          1           0       -0.748205    0.427695   -0.000981
 ---------------------------------------------------------------------

 E2 =    -0.8607434049D+00 EUMP2 =    -0.22609222877371D+03
 E2 =    -0.8607434049D+00 EUMP2 =    -0.22609222877371D+03
 E2 =    -0.8607443243D+00 EUMP2 =    -0.22609222880126D+03
 E2 =    -0.8607443243D+00 EUMP2 =    -0.22609222880126D+03
 E2 =    -0.8607442856D+00 EUMP2 =    -0.22609222876442D+03
 E2 =    -0.8607442856D+00 EUMP2 =    -0.22609222876442D+03
 E2 =    -0.8607457006D+00 EUMP2 =    -0.22609222876410D+03
 SCF Done:  E(RHF) =  -225.231822058     A.U. after    8 cycles
 E2 =    -0.8603249844D+00 EUMP2 =    -0.22609214704217D+03
 E2 =    -0.8603249844D+00 EUMP2 =    -0.22609214704217D+03
 SCF Done:  E(RHF) =  -225.230983324     A.U. after    8 cycles
 E2 =    -0.8611662905D+00 EUMP2 =    -0.22609214961493D+03
 E2 =    -0.8611662905D+00 EUMP2 =    -0.22609214961493D+03
 SCF Done:  E(RHF) =  -225.231082067     A.U. after    8 cycles
 E2 =    -0.8610646108D+00 EUMP2 =    -0.22609214667755D+03
 E2 =    -0.8610646108D+00 EUMP2 =    -0.22609214667755D+03
 SCF Done:  E(RHF) =  -225.231719730     A.U. after    8 cycles
 E2 =    -0.8604260225D+00 EUMP2 =    -0.22609214575299D+03
 E2 =    -0.8604260225D+00 EUMP2 =    -0.22609214575299D+03
 SCF Done:  E(RHF) =  -225.231395660     A.U. after    7 cycles
 E2 =    -0.8607441943D+00 EUMP2 =    -0.22609213985379D+03
 E2 =    -0.8607441943D+00 EUMP2 =    -0.22609213985379D+03
 SCF Done:  E(RHF) =  -225.231396003     A.U. after    7 cycles
 E2 =    -0.8607429950D+00 EUMP2 =    -0.22609213899772D+03
 E2 =    -0.8607429950D+00 EUMP2 =    -0.22609213899772D+03
 SCF Done:  E(RHF) =  -225.231395931     A.U. after    7 cycles
 E2 =    -0.8607434573D+00 EUMP2 =    -0.22609213938869D+03
 E2 =    -0.8607434573D+00 EUMP2 =    -0.22609213938869D+03
 SCF Done:  E(RHF) =  -225.231395688     A.U. after    7 cycles
 E2 =    -0.8607437307D+00 EUMP2 =    -0.22609213941831D+03
 E2 =    -0.8607437307D+00 EUMP2 =    -0.22609213941831D+03
 SCF Done:  E(RHF) =  -225.231255904     A.U. after    8 cycles
 E2 =    -0.8608824118D+00 EUMP2 =    -0.22609213831583D+03
 E2 =    -0.8608824118D+00 EUMP2 =    -0.22609213831583D+03
 SCF Done:  E(RHF) =  -225.231527650     A.U. after    8 cycles
 E2 =    -0.8606071912D+00 EUMP2 =    -0.22609213484113D+03
 E2 =    -0.8606071912D+00 EUMP2 =    -0.22609213484113D+03

 Alpha  occ. eigenvalues --  -20.50948 -15.57669 -15.56633 -11.33662  -1.36113
 Alpha  occ. eigenvalues --   -1.19796  -1.17860  -0.83113  -0.72801  -0.66381
 Alpha  occ. eigenvalues --   -0.66369  -0.65401  -0.58815  -0.54964  -0.47138
 Alpha  occ. eigenvalues --   -0.41629  -0.39797
 Alpha virt. eigenvalues --    0.01570   0.03390   0.03908   0.04477   0.05736
 Alpha virt. eigenvalues --    0.07232   0.09643   0.10747   0.12226   0.12726
 Alpha virt. eigenvalues --    0.13380   0.13964   0.15263   0.15806   0.16181

 Mulliken charges:
               1
     1  C   -0.197820
     2  O   -0.577072
     3  N   -0.305600
     4  N   -0.428629
     5  H    0.159615
     6  H    0.156775
     7  H    0.156795
     8  H    0.523780
     9  H    0.146435
    10  H    0.365721
 Sum of Mulliken charges =  -0.00000

 Dipole moment (field-independent basis, Debye):
    X=             -6.3832    Y=              0.1498    Z=              0.0008  Tot=              6.3849
 Quadrupole moment (field-independent basis, Debye-Ang):
   XX=            -27.4253   YY=            -21.8000   ZZ=            -25.6304
   XY=              1.6000   XZ=             -0.0037   YZ=              0.0009

  Exact polarizability:      55.890      -1.348      40.279       0.001      -0.001      32.388
 Approx polarizability:      37.507      -0.572      32.156       0.003       0.001      28.391

                      1                      2                      3
                      A                      A                      A
 Frequencies --     14.6069                60.2262                69.8975
 Red. masses --      1.1138                 3.2571                 2.6239
 Frc consts  --      0.0001                 0.0070                 0.0076
 IR Inten    --      0.0346                 1.8474                 1.0476

                      4                      5                      6
                      A                      A                      A
 Frequencies --    164.9449               197.2099               257.9963
 Red. masses --      4.3935                 1.1502                 1.1976
 Frc consts  --      0.0704                 0.0264                 0.0470
 IR Inten    --      7.0192                 2.6199                46.3285

                      7                      8                      9
                      A                      A                      A
 Frequencies --    499.0846               589.9065               802.5168
 Red. masses --      1.3115                 2.6075                 1.0703
 Frc consts  --      0.1925                 0.5346                 0.4061
 IR Inten    --    214.7039                13.6164                11.1511

                     10                     11                     12
                      A                      A                      A
 Frequencies --   1051.8870              1098.1385              1107.1444
 Red. masses --      1.5279                 1.6654                 1.1940
 Frc consts  --      0.9960                 1.1833                 0.8623
 IR Inten    --      4.5647                12.1513               148.9481

                     13                     14                     15
                      A                      A                      A
 Frequencies --   1295.5991              1418.2466              1654.1775
 Red. masses --      2.6709                 1.2251                 1.1973
 Frc consts  --      2.6415                 1.4518                 1.9303
 IR Inten    --    106.1110                 8.8202                40.3446

                     16                     17                     18
                      A                      A                      A
 Frequencies --   1669.2812              1671.7193              1772.8204
 Red. masses --      1.0640                 1.0820                 6.7323
 Frc consts  --      1.7469                 1.7815                12.4665
 IR Inten    --     17.7118                 3.0526               469.8676

                     19                     20                     21
                      A                      A                      A
 Frequencies --   3007.8110              3450.2938              3495.5772
 Red. masses --      1.0853                 1.0600                 1.0277
 Frc consts  --      5.7851                 7.4351                 7.3987
 IR Inten    --     84.7090               549.6631                 9.8621

                     22                     23                     24
                      A                      A                      A
 Frequencies --   3636.3352              3636.9683              3693.6245
 Red. masses --      1.0889                 1.0891                 1.0943
 Frc consts  --      8.4831                 8.4875                 8.7960
 IR Inten    --     15.6202                16.2809               115.1665

 - Thermochemistry -
 -------------------
 Temperature   298.150 Kelvin.  Pressure   1.00000 Atm.
 Atom     1 has atomic number  6 and mass  12.00000

 Molecular mass:    62.04801 amu.
 Principal axes and moments of inertia in atomic units:
                           1         2         3
     Eigenvalues --    54.40531 866.99622 911.90050
           X            0.99997   0.00730  -0.00001
           Y           -0.00730   0.99997   0.00004
           Z            0.00001  -0.00004   1.00000
 This molecule is an asymmetric top.
 Rotational symmetry number  1.
 Rotational temperatures (Kelvin)      1.59201     0.09990     0.09498
 Rotational constants (GHZ):          33.17215     2.08160     1.97910
 Zero-point vibrational energy     217218.0 (Joules/Mol)
                                   51.91635 (Kcal/Mol)
 Warning -- explicit consideration of   8 degrees of freedom as
           vibrations may cause significant error
 Vibrational temperatures:     21.02    86.65   100.57   237.32   283.74
          (Kelvin)            371.20   718.07   848.74  1154.64  1513.43
                             1579.98  1592.93  1864.08  2040.54  2379.99
                             2401.72  2405.23  2550.69  4327.57  4964.20
                             5029.36  5231.88  5232.79  5314.30

 Zero-point correction=                           0.082734 (Hartree/Particle)
 Thermal correction to Energy=                    0.090318
 Thermal correction to Enthalpy=                  0.091262
 Thermal correction to Gibbs Free Energy=         0.049759
 Sum of electronic and zero-point Energies=           -226.009495
 Sum of electronic and thermal Energies=              -226.001910
 Sum of electronic and thermal Enthalpies=            -226.000966
 Sum of electronic and thermal Free Energies=         -226.042470

                     E (Thermal)             CV                S
                      KCal/Mol        Cal/Mol-Kelvin    Cal/Mol-Kelvin
 Total                   56.676             21.602             87.352
 Electronic               0.000              0.000              0.000
 Translational            0.889              2.981             38.295
 Rotational               0.889              2.981             25.267
 Vibrational             54.898             15.641             23.789
 Vibration     1          0.593              1.986              7.258
 Vibration     2          0.597              1.973              4.450
 Vibration     3          0.598              1.968              4.156
 Vibration     4          0.623              1.886              2.492
 Vibration     5          0.637              1.844              2.159
 Vibration     6          0.667              1.749              1.675
 Vibration     7          0.855              1.252              0.660
 Vibration     8          0.947              1.053              0.467

 ## DEPERTURBED TRANSITIONS MOMENTS ##

 Electric dipole : Fundamental Bands
 ------------------------------------------------------------------------

 ## AFTER VARIATIONAL CORRECTION

 Electric dipole : Fundamental Bands
 ------------------------------------------------------------------------

                           ! Non-Optimized Parameters !
 Normal termination of Gaussian 16 at Mon Mar 31 08:33:35 2025.
