 Gaussian 16, Revision C.01,
 Gaussian 16:  EM64L-G16RevC.01  3-Jul-2019

 ----------------------------------------------
 # MP2/aug-cc-pVDZ opt freq=(vibrot,anharmonic)
 ----------------------------------------------

 ----
 blah
 ----
 Symbolic Z-matrix:
 Charge =  0 Multiplicity = 1

 SCF Done:  E(RHF) =  -284.038274465     A.U. after   13 cycles
 E2 =    -0.8837356668D+00 EUMP2 =    -0.28492201013199D+03
 SCF Done:  E(RHF) =  -284.038881104     A.U. after   12 cycles
 E2 =    -0.8836710139D+00 EUMP2 =    -0.28492255211822D+03
 SCF Done:  E(RHF) =  -284.038816909     A.U. after   11 cycles
 E2 =    -0.8837754438D+00 EUMP2 =    -0.28492259235244D+03
 SCF Done:  E(RHF) =  -284.038676179     A.U. after   10 cycles
 E2 =    -0.8838995945D+00 EUMP2 =    -0.28492257577348D+03
 SCF Done:  E(RHF) =  -284.038748514     A.U. after   10 cycles
 E2 =    -0.8838573672D+00 EUMP2 =    -0.28492260588158D+03
 SCF Done:  E(RHF) =  -284.038764679     A.U. after   10 cycles
 E2 =    -0.8838427592D+00 EUMP2 =    -0.28492260743837D+03
 SCF Done:  E(RHF) =  -284.038767058     A.U. after   10 cycles
 E2 =    -0.8838440582D+00 EUMP2 =    -0.28492261111592D+03
 SCF Done:  E(RHF) =  -284.038753771     A.U. after   10 cycles
 E2 =    -0.8838593561D+00 EUMP2 =    -0.28492261312742D+03
 SCF Done:  E(RHF) =  -284.038749539     A.U. after    9 cycles
 E2 =    -0.8838645326D+00 EUMP2 =    -0.28492261407165D+03
 SCF Done:  E(RHF) =  -284.038749231     A.U. after   10 cycles
 E2 =    -0.8838669287D+00 EUMP2 =    -0.28492261615993D+03
 E2 =    -0.8838678036D+00 EUMP2 =    -0.28492261774957D+03
 E2 =    -0.8838637756D+00 EUMP2 =    -0.28492261890157D+03
 E2 =    -0.8838614387D+00 EUMP2 =    -0.28492261960597D+03
 E2 =    -0.8838614450D+00 EUMP2 =    -0.28492261964879D+03
 E2 =    -0.8838639475D+00 EUMP2 =    -0.28492261968345D+03
 E2 =    -0.8838658606D+00 EUMP2 =    -0.28492261969657D+03
 Optimization completed.
    -- Stationary point found.
 Normal termination of Gaussian 16 at Thu Apr  3 21:54:43 2025.

 ----------------------------------------------------------------------
 #N Geom=AllCheck Guess=TCheck SCRF=Check GenChk RMP2(FC)/Aug-CC-pVDZ F
 req
 ----------------------------------------------------------------------

 Structure from the checkpoint file:  "/scr/Gau-17111.chk"
 ----
 blah
 ----
 Charge =  0 Multiplicity = 1

                         Standard orientation:
 ---------------------------------------------------------------------
 Center     Atomic      Atomic             Coordinates (Angstroms)
 Number     Number       Type             X           Y           Z
 ---------------------------------------------------------------------
      1          6           0       -1.012499   -0.859610    0.000311
      2          8           0       -2.239139   -0.705321   -0.000416
      3          7           0       -0.110486    0.156010    0.000447
      4          8           0        2.873566   -0.272264    0.000080
      5          1           0       -0.533947   -1.862273    0.000885
      6          1           0        3.378739   -0.575785   -0.765502
      7          1           0        3.384093   -0.576318    0.761879
      8          1           0        0.881844   -0.063689    0.001369
      9          6           0       -0.555568    1.543439   -0.000053
     10          1           0       -1.166604    1.756036    0.890358
     11          1           0       -1.167374    1.754973   -0.890173
     12          1           0        0.329627    2.192692   -0.000814
 ---------------------------------------------------------------------

 E2 =    -0.8838658662D+00 EUMP2 =    -0.28492261970212D+03
 E2 =    -0.8838658662D+00 EUMP2 =    -0.28492261970212D+03
 E2 =    -0.8838664765D+00 EUMP2 =    -0.28492261969113D+03
 E2 =    -0.8838664765D+00 EUMP2 =    -0.28492261969113D+03
 SCF Done:  E(RHF) =  -284.038686794     A.U. after    9 cycles
 E2 =    -0.8838657465D+00 EUMP2 =    -0.28492255254040D+03
 E2 =    -0.8838657465D+00 EUMP2 =    -0.28492255254040D+03
 SCF Done:  E(RHF) =  -284.038687411     A.U. after    9 cycles
 E2 =    -0.8838651368D+00 EUMP2 =    -0.28492255254757D+03
 E2 =    -0.8838651368D+00 EUMP2 =    -0.28492255254757D+03
 SCF Done:  E(RHF) =  -284.038706166     A.U. after    9 cycles
 E2 =    -0.8838437528D+00 EUMP2 =    -0.28492254991932D+03
 E2 =    -0.8838437528D+00 EUMP2 =    -0.28492254991932D+03
 SCF Done:  E(RHF) =  -284.038665055     A.U. after    9 cycles
 E2 =    -0.8838866550D+00 EUMP2 =    -0.28492255171035D+03
 E2 =    -0.8838866550D+00 EUMP2 =    -0.28492255171035D+03
 SCF Done:  E(RHF) =  -284.039022109     A.U. after   10 cycles
 E2 =    -0.8835085797D+00 EUMP2 =    -0.28492253068854D+03
 E2 =    -0.8835085797D+00 EUMP2 =    -0.28492253068854D+03
 SCF Done:  E(RHF) =  -284.038309080     A.U. after   10 cycles
 E2 =    -0.8842255566D+00 EUMP2 =    -0.28492253463638D+03
 E2 =    -0.8842255566D+00 EUMP2 =    -0.28492253463638D+03
 SCF Done:  E(RHF) =  -284.038027491     A.U. after    8 cycles
 E2 =    -0.8844963526D+00 EUMP2 =    -0.28492252384331D+03
 E2 =    -0.8844963526D+00 EUMP2 =    -0.28492252384331D+03
 SCF Done:  E(RHF) =  -284.039282217     A.U. after    8 cycles
 E2 =    -0.8832383621D+00 EUMP2 =    -0.28492252057861D+03
 E2 =    -0.8832383621D+00 EUMP2 =    -0.28492252057861D+03
 SCF Done:  E(RHF) =  -284.038650520     A.U. after    8 cycles
 E2 =    -0.8838648373D+00 EUMP2 =    -0.28492251535754D+03
 E2 =    -0.8838648373D+00 EUMP2 =    -0.28492251535754D+03
 SCF Done:  E(RHF) =  -284.038650029     A.U. after    8 cycles
 E2 =    -0.8838653640D+00 EUMP2 =    -0.28492251539285D+03
 E2 =    -0.8838653640D+00 EUMP2 =    -0.28492251539285D+03

 Alpha  occ. eigenvalues --  -20.61448 -20.51967 -15.58078 -11.34546 -11.26146
 Alpha  occ. eigenvalues --   -1.39013  -1.35858  -1.21558  -0.94898  -0.79324
 Alpha  occ. eigenvalues --   -0.75070  -0.72595  -0.62983  -0.62251  -0.60656
 Alpha  occ. eigenvalues --   -0.57023  -0.54968  -0.53516  -0.50986  -0.41520
 Alpha  occ. eigenvalues --   -0.37715
 Alpha virt. eigenvalues --    0.01734   0.04488   0.04714   0.05213   0.07105
 Alpha virt. eigenvalues --    0.07385   0.08524   0.11142   0.11487   0.14708
 Alpha virt. eigenvalues --    0.15203   0.16550   0.16794   0.17812   0.18195

 Mulliken charges:
               1
     1  C    0.622430
     2  O   -0.550238
     3  N   -0.022516
     4  O   -0.313179
     5  H   -0.173444
     6  H    0.133821
     7  H    0.152536
     8  H   -0.133483
     9  C    0.673873
    10  H   -0.094248
    11  H   -0.094483
    12  H   -0.201069
 Sum of Mulliken charges =  -0.00000

 Dipole moment (field-independent basis, Debye):
    X=              6.3320    Y=              0.1074    Z=              0.0113  Tot=              6.3329
 Quadrupole moment (field-independent basis, Debye-Ang):
   XX=            -29.8134   YY=            -29.9897   ZZ=            -30.3120
   XY=             -7.4057   XZ=              0.0521   YZ=             -0.0153

  Exact polarizability:      58.701       2.458      52.978       0.078      -0.033      39.069
 Approx polarizability:      44.104       0.258      38.514       0.060      -0.030      35.198

                      1                      2                      3
                      A                      A                      A
 Frequencies --     35.0256                52.9132                86.2883
 Red. masses --      3.6612                 1.8544                 1.2871
 Frc consts  --      0.0026                 0.0031                 0.0056
 IR Inten    --      2.5289                 0.5456                 0.1134

                      4                      5                      6
                      A                      A                      A
 Frequencies --    101.0524               131.9421               141.4847
 Red. masses --      1.0538                 2.3818                 1.7177
 Frc consts  --      0.0063                 0.0244                 0.0203
 IR Inten    --     23.1999                44.6464               178.1829

                      7                      8                      9
                      A                      A                      A
 Frequencies --    172.6936               265.0206               330.7326
 Red. masses --      1.3129                 3.8881                 2.1848
 Frc consts  --      0.0231                 0.1609                 0.1408
 IR Inten    --      5.9122                10.8346                61.4532

                     10                     11                     12
                      A                      A                      A
 Frequencies --    690.4659               763.4622               987.0043
 Red. masses --      1.0597                 3.6951                 3.2325
 Frc consts  --      0.2976                 1.2690                 1.8554
 IR Inten    --     62.9847                 8.3398                11.1638

                     13                     14                     15
                      A                      A                      A
 Frequencies --   1012.3508              1156.4923              1167.4605
 Red. masses --      1.6107                 1.2795                 1.5155
 Frc consts  --      0.9726                 1.0083                 1.2170
 IR Inten    --      0.8270                 0.0315                 1.1984

                     16                     17                     18
                      A                      A                      A
 Frequencies --   1261.4312              1397.0077              1439.2988
 Red. masses --      2.1341                 1.2374                 1.1926
 Frc consts  --      2.0008                 1.4228                 1.4556
 IR Inten    --     53.4508                 8.2635                12.4220

                     19                     20                     21
                      A                      A                      A
 Frequencies --   1474.2588              1502.8604              1569.4221
 Red. masses --      1.0385                 1.0791                 1.7137
 Frc consts  --      1.3299                 1.4360                 2.4869
 IR Inten    --      7.6783                 0.5224               104.2955

                     22                     23                     24
                      A                      A                      A
 Frequencies --   1624.0846              1732.0843              3022.0196
 Red. masses --      1.0879                 7.2750                 1.0864
 Frc consts  --      1.6907                12.8594                 5.8456
 IR Inten    --     72.8823               385.6651               100.1303

                     25                     26                     27
                      A                      A                      A
 Frequencies --   3073.6994              3152.2625              3192.6026
 Red. masses --      1.0336                 1.1044                 1.1036
 Frc consts  --      5.7537                 6.4657                 6.6274
 IR Inten    --     32.7555                18.4749                13.7002

                     28                     29                     30
                      A                      A                      A
 Frequencies --   3588.4084              3798.0072              3928.8523
 Red. masses --      1.0818                 1.0454                 1.0816
 Frc consts  --      8.2074                 8.8847                 9.8365
 IR Inten    --    362.5054                13.2919                89.7951

 - Thermochemistry -
 -------------------
 Temperature   298.150 Kelvin.  Pressure   1.00000 Atm.
 Atom     1 has atomic number  6 and mass  12.00000

 Molecular mass:    77.04768 amu.
 Principal axes and moments of inertia in atomic units:
                           1         2         3
     Eigenvalues --   230.88742 921.521361132.60265
           X            0.99950  -0.03160  -0.00003
           Y            0.03160   0.99950  -0.00001
           Z            0.00003   0.00001   1.00000
 This molecule is an asymmetric top.
 Rotational symmetry number  1.
 Rotational temperatures (Kelvin)      0.37513     0.09399     0.07647
 Rotational constants (GHZ):           7.81654     1.95844     1.59345
 Zero-point vibrational energy     256304.0 (Joules/Mol)
                                   61.25814 (Kcal/Mol)
 Warning -- explicit consideration of   9 degrees of freedom as
           vibrations may cause significant error
 Vibrational temperatures:     50.39    76.13   124.15   145.39   189.84
          (Kelvin)            203.56   248.47   381.31   475.85   993.43
                             1098.45  1420.08  1456.55  1663.93  1679.72
                             1814.92  2009.98  2070.83  2121.13  2162.28
                             2258.05  2336.70  2492.08  4348.01  4422.37
                             4535.40  4593.44  5162.92  5464.49  5652.74

 Zero-point correction=                           0.097621 (Hartree/Particle)
 Thermal correction to Energy=                    0.106795
 Thermal correction to Enthalpy=                  0.107739
 Thermal correction to Gibbs Free Energy=         0.062474
 Sum of electronic and zero-point Energies=           -284.824999
 Sum of electronic and thermal Energies=              -284.815825
 Sum of electronic and thermal Enthalpies=            -284.814881
 Sum of electronic and thermal Free Energies=         -284.860146

                     E (Thermal)             CV                S
                      KCal/Mol        Cal/Mol-Kelvin    Cal/Mol-Kelvin
 Total                   67.015             26.330             95.268
 Electronic               0.000              0.000              0.000
 Translational            0.889              2.981             38.941
 Rotational               0.889              2.981             26.980
 Vibrational             65.237             20.368             29.348
 Vibration     1          0.594              1.982              5.522
 Vibration     2          0.596              1.976              4.705
 Vibration     3          0.601              1.959              3.743
 Vibration     4          0.604              1.948              3.434
 Vibration     5          0.612              1.921              2.918
 Vibration     6          0.615              1.912              2.784
 Vibration     7          0.626              1.876              2.406
 Vibration     8          0.671              1.737              1.628
 Vibration     9          0.713              1.614              1.257

 ## DEPERTURBED TRANSITIONS MOMENTS ##

 Electric dipole : Fundamental Bands
 ------------------------------------------------------------------------

 ## AFTER VARIATIONAL CORRECTION

 Electric dipole : Fundamental Bands
 ------------------------------------------------------------------------

                           ! Non-Optimized Parameters !
 Normal termination of Gaussian 16 at Fri Apr  4 01:00:29 2025.
