 Gaussian 16, Revision C.01,
 Gaussian 16:  EM64L-G16RevC.01  3-Jul-2019

 ----------------------------------------------
 # MP2/aug-cc-pVDZ opt freq=(vibrot,anharmonic)
 ----------------------------------------------

 ----
 blah
 ----
 Symbolic Z-matrix:
 Charge =  0 Multiplicity = 1

 SCF Done:  E(RHF) =  -264.193864549     A.U. after   13 cycles
 E2 =    -0.8661477383D+00 EUMP2 =    -0.26506001228741D+03
 SCF Done:  E(RHF) =  -264.203507147     A.U. after   12 cycles
 E2 =    -0.8652484958D+00 EUMP2 =    -0.26506875564238D+03
 SCF Done:  E(RHF) =  -264.203610943     A.U. after   12 cycles
 E2 =    -0.8653107615D+00 EUMP2 =    -0.26506892170423D+03
 SCF Done:  E(RHF) =  -264.203615433     A.U. after   12 cycles
 E2 =    -0.8653333668D+00 EUMP2 =    -0.26506894879970D+03
 SCF Done:  E(RHF) =  -264.203781343     A.U. after   11 cycles
 E2 =    -0.8653031122D+00 EUMP2 =    -0.26506908445562D+03
 SCF Done:  E(RHF) =  -264.203766304     A.U. after   11 cycles
 E2 =    -0.8653253760D+00 EUMP2 =    -0.26506909168008D+03
 SCF Done:  E(RHF) =  -264.203753721     A.U. after    9 cycles
 E2 =    -0.8653488323D+00 EUMP2 =    -0.26506910255317D+03
 SCF Done:  E(RHF) =  -264.203699254     A.U. after   12 cycles
 E2 =    -0.8654174948D+00 EUMP2 =    -0.26506911674885D+03
 SCF Done:  E(RHF) =  -264.203707009     A.U. after    9 cycles
 E2 =    -0.8654133864D+00 EUMP2 =    -0.26506912039516D+03
 SCF Done:  E(RHF) =  -264.203759192     A.U. after   10 cycles
 E2 =    -0.8653671870D+00 EUMP2 =    -0.26506912637927D+03
 E2 =    -0.8653531800D+00 EUMP2 =    -0.26506913003189D+03
 E2 =    -0.8653363562D+00 EUMP2 =    -0.26506913470578D+03
 E2 =    -0.8653157675D+00 EUMP2 =    -0.26506914314884D+03
 E2 =    -0.8653261987D+00 EUMP2 =    -0.26506914794617D+03
 E2 =    -0.8653503310D+00 EUMP2 =    -0.26506914880051D+03
 E2 =    -0.8653650322D+00 EUMP2 =    -0.26506914894266D+03
 Optimization completed.
    -- Stationary point found.
 Normal termination of Gaussian 16 at Thu Apr  3 23:05:47 2025.

 ----------------------------------------------------------------------
 #N Geom=AllCheck Guess=TCheck SCRF=Check GenChk RMP2(FC)/Aug-CC-pVDZ F
 req
 ----------------------------------------------------------------------

 Structure from the checkpoint file:  "/scr/Gau-32838.chk"
 ----
 blah
 ----
 Charge =  0 Multiplicity = 1

                         Standard orientation:
 ---------------------------------------------------------------------
 Center     Atomic      Atomic             Coordinates (Angstroms)
 Number     Number       Type             X           Y           Z
 ---------------------------------------------------------------------
      1          6           0       -0.986767   -0.862956    0.000446
      2          8           0       -2.220102   -0.762840   -0.000586
      3          7           0       -0.127600    0.187262    0.000525
      4          7           0        2.911000   -0.299243    0.000197
      5          1           0        3.484163    0.543335    0.052492
      6          1           0        3.207621   -0.790273   -0.843808
      7          1           0        3.198419   -0.884649    0.785135
      8          1           0       -0.467271   -1.845409    0.001316
      9          6           0       -0.635360    1.552173    0.000023
     10          1           0        0.879533    0.009288    0.002132
     11          1           0       -1.256336    1.737638   -0.889830
     12          1           0        0.218900    2.242414   -0.001013
     13          1           0       -1.255253    1.738937    0.890391
 ---------------------------------------------------------------------

 E2 =    -0.8653650337D+00 EUMP2 =    -0.26506914894415D+03
 E2 =    -0.8653650337D+00 EUMP2 =    -0.26506914894415D+03
 E2 =    -0.8653662433D+00 EUMP2 =    -0.26506914895610D+03
 E2 =    -0.8653662433D+00 EUMP2 =    -0.26506914895610D+03
 SCF Done:  E(RHF) =  -264.203731446     A.U. after    9 cycles
 E2 =    -0.8653479641D+00 EUMP2 =    -0.26506907941041D+03
 E2 =    -0.8653479641D+00 EUMP2 =    -0.26506907941041D+03
 SCF Done:  E(RHF) =  -264.203700571     A.U. after    9 cycles
 E2 =    -0.8653807233D+00 EUMP2 =    -0.26506908129414D+03
 E2 =    -0.8653807233D+00 EUMP2 =    -0.26506908129414D+03
 SCF Done:  E(RHF) =  -264.204186007     A.U. after   10 cycles
 E2 =    -0.8648797695D+00 EUMP2 =    -0.26506906577613D+03
 E2 =    -0.8648797695D+00 EUMP2 =    -0.26506906577613D+03
 SCF Done:  E(RHF) =  -264.203216996     A.U. after    9 cycles
 E2 =    -0.8658533447D+00 EUMP2 =    -0.26506907034087D+03
 E2 =    -0.8658533447D+00 EUMP2 =    -0.26506907034087D+03
 SCF Done:  E(RHF) =  -264.203383010     A.U. after    8 cycles
 E2 =    -0.8656849820D+00 EUMP2 =    -0.26506906799194D+03
 E2 =    -0.8656849820D+00 EUMP2 =    -0.26506906799194D+03
 SCF Done:  E(RHF) =  -264.204019206     A.U. after    8 cycles
 E2 =    -0.8650474252D+00 EUMP2 =    -0.26506906663091D+03
 E2 =    -0.8650474252D+00 EUMP2 =    -0.26506906663091D+03
 SCF Done:  E(RHF) =  -264.203693610     A.U. after    8 cycles
 E2 =    -0.8653672122D+00 EUMP2 =    -0.26506906082235D+03
 E2 =    -0.8653672122D+00 EUMP2 =    -0.26506906082235D+03
 SCF Done:  E(RHF) =  -264.203697817     A.U. after    8 cycles
 E2 =    -0.8653617197D+00 EUMP2 =    -0.26506905953689D+03
 E2 =    -0.8653617197D+00 EUMP2 =    -0.26506905953689D+03
 SCF Done:  E(RHF) =  -264.203696913     A.U. after    8 cycles
 E2 =    -0.8653637351D+00 EUMP2 =    -0.26506906064861D+03
 E2 =    -0.8653637351D+00 EUMP2 =    -0.26506906064861D+03
 SCF Done:  E(RHF) =  -264.203694541     A.U. after    8 cycles
 E2 =    -0.8653651535D+00 EUMP2 =    -0.26506905969421D+03
 E2 =    -0.8653651535D+00 EUMP2 =    -0.26506905969421D+03

 Alpha  occ. eigenvalues --  -20.51657 -15.58888 -15.57562 -11.34231 -11.26034
 Alpha  occ. eigenvalues --   -1.35502  -1.21219  -1.17736  -0.94684  -0.78822
 Alpha  occ. eigenvalues --   -0.72136  -0.66125  -0.65764  -0.62163  -0.60431
 Alpha  occ. eigenvalues --   -0.57157  -0.54125  -0.50720  -0.46844  -0.41160
 Alpha  occ. eigenvalues --   -0.37347
 Alpha virt. eigenvalues --    0.01971   0.04126   0.04758   0.05066   0.06599
 Alpha virt. eigenvalues --    0.07397   0.07490   0.08465   0.11763   0.12251
 Alpha virt. eigenvalues --    0.14512   0.14880   0.15912   0.16864   0.17060

 Mulliken charges:
               1
     1  C    0.616843
     2  O   -0.555984
     3  N    0.016630
     4  N   -0.144015
     5  H    0.034451
     6  H    0.012890
     7  H    0.036410
     8  H   -0.199741
     9  C    0.666278
    10  H   -0.075110
    11  H   -0.094555
    12  H   -0.220036
    13  H   -0.094060
 Sum of Mulliken charges =  -0.00000

 Dipole moment (field-independent basis, Debye):
    X=              6.4467    Y=              0.8920    Z=              0.0005  Tot=              6.5082
 Quadrupole moment (field-independent basis, Debye-Ang):
   XX=            -32.0652   YY=            -29.8643   ZZ=            -32.2662
   XY=             -4.6588   XZ=              0.0090   YZ=             -0.0184

  Exact polarizability:      66.297       2.133      57.207       0.049      -0.062      42.045
 Approx polarizability:      47.903       0.993      43.047       0.044      -0.058      38.102

                      1                      2                      3
                      A                      A                      A
 Frequencies --      9.1495                45.0181                52.3021
 Red. masses --      1.0345                 3.1740                 1.6776
 Frc consts  --      0.0001                 0.0038                 0.0027
 IR Inten    --      0.0985                 1.0955                 0.1783

                      4                      5                      6
                      A                      A                      A
 Frequencies --     93.4333               144.8267               207.3138
 Red. masses --      1.5117                 4.3191                 1.2565
 Frc consts  --      0.0078                 0.0534                 0.0318
 IR Inten    --      0.1084                 3.9756                 7.5344

                      7                      8                      9
                      A                      A                      A
 Frequencies --    244.6066               265.9496               344.1340
 Red. masses --      1.1680                 3.8200                 2.1802
 Frc consts  --      0.0412                 0.1592                 0.1521
 IR Inten    --     36.2066                13.2494                51.0515

                     10                     11                     12
                      A                      A                      A
 Frequencies --    763.3822               772.2159               987.8817
 Red. masses --      3.7135                 1.0552                 3.2237
 Frc consts  --      1.2750                 0.3707                 1.8536
 IR Inten    --      9.1785                62.2737                11.3096

                     13                     14                     15
                      A                      A                      A
 Frequencies --   1011.2777              1115.1162              1155.2967
 Red. masses --      1.6141                 1.1815                 1.2791
 Frc consts  --      0.9726                 0.8656                 1.0059
 IR Inten    --      0.8389               146.4898                 0.0633

                     16                     17                     18
                      A                      A                      A
 Frequencies --   1168.4787              1279.3114              1395.5424
 Red. masses --      1.5438                 2.3516                 1.2443
 Frc consts  --      1.2419                 2.2676                 1.4278
 IR Inten    --      2.8155                62.8884                 9.8955

                     19                     20                     21
                      A                      A                      A
 Frequencies --   1438.2316              1472.4835              1503.2549
 Red. masses --      1.1951                 1.0384                 1.0598
 Frc consts  --      1.4565                 1.3265                 1.4111
 IR Inten    --     10.5536                 7.1203                 0.0586

                     22                     23                     24
                      A                      A                      A
 Frequencies --   1596.1482              1647.2251              1647.3753
 Red. masses --      1.5908                 1.0666                 1.0627
 Frc consts  --      2.3879                 1.7052                 1.6992
 IR Inten    --    100.8415                 8.7037                16.4330

                     25                     26                     27
                      A                      A                      A
 Frequencies --   1729.5894              3016.3788              3070.4649
 Red. masses --      7.1142                 1.0860                 1.0335
 Frc consts  --     12.5391                 5.8215                 5.7409
 IR Inten    --    405.5967               103.5891                36.8561

                     28                     29                     30
                      A                      A                      A
 Frequencies --   3148.9293              3185.7811              3459.3571
 Red. masses --      1.1043                 1.1035                 1.0793
 Frc consts  --      6.4516                 6.5985                 7.6102
 IR Inten    --     19.0869                17.4572               546.1455

                     31                     32                     33
                      A                      A                      A
 Frequencies --   3475.5686              3624.0961              3624.2655
 Red. masses --      1.0336                 1.0884                 1.0886
 Frc consts  --      7.3559                 8.4225                 8.4249
 IR Inten    --     69.7390                11.2359                11.9194

 - Thermochemistry -
 -------------------
 Temperature   298.150 Kelvin.  Pressure   1.00000 Atm.
 Atom     1 has atomic number  6 and mass  12.00000

 Molecular mass:    76.06366 amu.
 Principal axes and moments of inertia in atomic units:
                           1         2         3
     Eigenvalues --   242.27842 906.012571127.30290
           X            0.99946  -0.03300  -0.00005
           Y            0.03300   0.99946  -0.00003
           Z            0.00005   0.00002   1.00000
 This molecule is an asymmetric top.
 Rotational symmetry number  1.
 Rotational temperatures (Kelvin)      0.35750     0.09560     0.07683
 Rotational constants (GHZ):           7.44904     1.99196     1.60094
 Zero-point vibrational energy     291257.1 (Joules/Mol)
                                   69.61212 (Kcal/Mol)
 Warning -- explicit consideration of   9 degrees of freedom as
           vibrations may cause significant error
 Vibrational temperatures:     13.16    64.77    75.25   134.43   208.37
          (Kelvin)            298.28   351.93   382.64   495.13  1098.34
                             1111.05  1421.34  1455.00  1604.40  1662.21
                             1681.18  1840.64  2007.87  2069.29  2118.58
                             2162.85  2296.50  2369.99  2370.21  2488.49
                             4339.90  4417.71  4530.61  4583.63  4977.24
                             5000.57  5214.27  5214.51

 Zero-point correction=                           0.110934 (Hartree/Particle)
 Thermal correction to Energy=                    0.120001
 Thermal correction to Enthalpy=                  0.120945
 Thermal correction to Gibbs Free Energy=         0.074499
 Sum of electronic and zero-point Energies=           -264.958215
 Sum of electronic and thermal Energies=              -264.949148
 Sum of electronic and thermal Enthalpies=            -264.948204
 Sum of electronic and thermal Free Energies=         -264.994650

                     E (Thermal)             CV                S
                      KCal/Mol        Cal/Mol-Kelvin    Cal/Mol-Kelvin
 Total                   75.301             26.277             97.754
 Electronic               0.000              0.000              0.000
 Translational            0.889              2.981             38.902
 Rotational               0.889              2.981             27.006
 Vibrational             73.524             20.316             31.845
 Vibration     1          0.593              1.987              8.188
 Vibration     2          0.595              1.979              5.025
 Vibration     3          0.596              1.977              4.728
 Vibration     4          0.602              1.954              3.587
 Vibration     5          0.616              1.908              2.739
 Vibration     6          0.641              1.829              2.067
 Vibration     7          0.660              1.772              1.769
 Vibration     8          0.672              1.736              1.622
 Vibration     9          0.723              1.587              1.193

 ## DEPERTURBED TRANSITIONS MOMENTS ##

 Electric dipole : Fundamental Bands
 ------------------------------------------------------------------------

 ## AFTER VARIATIONAL CORRECTION

 Electric dipole : Fundamental Bands
 ------------------------------------------------------------------------

                           ! Non-Optimized Parameters !
 Normal termination of Gaussian 16 at Fri Apr  4 02:57:58 2025.
