 Gaussian 16, Revision C.01,
 Gaussian 16:  EM64L-G16RevC.01  3-Jul-2019

 ----------------------------------------------
 # MP2/aug-cc-pVDZ opt freq=(vibrot,anharmonic)
 ----------------------------------------------

 ----
 blah
 ----
 Symbolic Z-matrix:
 Charge =  0 Multiplicity = 1

 SCF Done:  E(RHF) =  -227.836948984     A.U. after   13 cycles
 E2 =    -0.6787501277D+00 EUMP2 =    -0.22851569911211D+03
 SCF Done:  E(RHF) =  -227.837580532     A.U. after   10 cycles
 E2 =    -0.6783519833D+00 EUMP2 =    -0.22851593251578D+03
 SCF Done:  E(RHF) =  -227.837511432     A.U. after   10 cycles
 E2 =    -0.6784463604D+00 EUMP2 =    -0.22851595779272D+03
 SCF Done:  E(RHF) =  -227.837443752     A.U. after    9 cycles
 E2 =    -0.6785172344D+00 EUMP2 =    -0.22851596098678D+03
 Optimization completed.
    -- Stationary point found.
 Normal termination of Gaussian 16 at Fri Mar 21 03:00:36 2025.

 ----------------------------------------------------------------------
 #N Geom=AllCheck Guess=TCheck SCRF=Check GenChk RMP2(FC)/Aug-CC-pVDZ F
 req
 ----------------------------------------------------------------------

 Structure from the checkpoint file:  "/scr/Gau-5693.chk"
 ----
 blah
 ----
 Charge =  0 Multiplicity = 1

                         Standard orientation:
 ---------------------------------------------------------------------
 Center     Atomic      Atomic             Coordinates (Angstroms)
 Number     Number       Type             X           Y           Z
 ---------------------------------------------------------------------
      1          6           0        0.126502   -0.139121   -0.000334
      2          8           0        0.702615   -1.207496    0.000034
      3          8           0        0.859654    1.025612    0.000174
      4          6           0       -1.378387    0.040522   -0.000017
      5          1           0        0.258714    1.785722    0.000261
      6          1           0       -1.857606   -0.945038   -0.000031
      7          1           0       -1.694147    0.603091   -0.892950
      8          1           0       -1.693808    0.602889    0.893166
 ---------------------------------------------------------------------

 SCF Done:  E(RHF) =  -227.837443752     A.U. after    1 cycles
 E2 =    -0.6785172337D+00 EUMP2 =    -0.22851596098616D+03
 E2 =    -0.6785172337D+00 EUMP2 =    -0.22851596098616D+03
 SCF Done:  E(RHF) =  -227.837442997     A.U. after    8 cycles
 E2 =    -0.6785178967D+00 EUMP2 =    -0.22851596089378D+03
 E2 =    -0.6785178967D+00 EUMP2 =    -0.22851596089378D+03
 SCF Done:  E(RHF) =  -227.837443018     A.U. after    8 cycles
 E2 =    -0.6785178803D+00 EUMP2 =    -0.22851596089803D+03
 E2 =    -0.6785178803D+00 EUMP2 =    -0.22851596089803D+03
 SCF Done:  E(RHF) =  -227.837449802     A.U. after    8 cycles
 E2 =    -0.6785096520D+00 EUMP2 =    -0.22851595945374D+03
 E2 =    -0.6785096520D+00 EUMP2 =    -0.22851595945374D+03
 SCF Done:  E(RHF) =  -227.837434488     A.U. after    8 cycles
 E2 =    -0.6785255424D+00 EUMP2 =    -0.22851596003081D+03
 E2 =    -0.6785255424D+00 EUMP2 =    -0.22851596003081D+03
 SCF Done:  E(RHF) =  -227.837439668     A.U. after   10 cycles
 E2 =    -0.6785197709D+00 EUMP2 =    -0.22851595943896D+03
 E2 =    -0.6785197709D+00 EUMP2 =    -0.22851595943896D+03
 E2 =    -0.6785196490D+00 EUMP2 =    -0.22851595964373D+03
 E2 =    -0.6785196490D+00 EUMP2 =    -0.22851595964373D+03
 E2 =    -0.6785270846D+00 EUMP2 =    -0.22851595871001D+03
 E2 =    -0.6785270846D+00 EUMP2 =    -0.22851595871001D+03
 SCF Done:  E(RHF) =  -227.837789908     A.U. after    9 cycles
 E2 =    -0.6781491014D+00 EUMP2 =    -0.22851593900977D+03
 E2 =    -0.6781491014D+00 EUMP2 =    -0.22851593900977D+03
 SCF Done:  E(RHF) =  -227.837052204     A.U. after    9 cycles
 E2 =    -0.6788862922D+00 EUMP2 =    -0.22851593849629D+03
 E2 =    -0.6788862922D+00 EUMP2 =    -0.22851593849629D+03
 SCF Done:  E(RHF) =  -227.837620195     A.U. after    9 cycles
 E2 =    -0.6782760744D+00 EUMP2 =    -0.22851589626908D+03
 E2 =    -0.6782760744D+00 EUMP2 =    -0.22851589626908D+03
 SCF Done:  E(RHF) =  -227.837138404     A.U. after    9 cycles
 E2 =    -0.6787595045D+00 EUMP2 =    -0.22851589790857D+03
 E2 =    -0.6787595045D+00 EUMP2 =    -0.22851589790857D+03
 SCF Done:  E(RHF) =  -227.837376714     A.U. after    9 cycles
 E2 =    -0.6785167278D+00 EUMP2 =    -0.22851589344213D+03
 E2 =    -0.6785167278D+00 EUMP2 =    -0.22851589344213D+03
 SCF Done:  E(RHF) =  -227.837376717     A.U. after    9 cycles
 E2 =    -0.6785166889D+00 EUMP2 =    -0.22851589340586D+03
 E2 =    -0.6785166889D+00 EUMP2 =    -0.22851589340586D+03
 SCF Done:  E(RHF) =  -227.837304268     A.U. after    9 cycles
 E2 =    -0.6785875550D+00 EUMP2 =    -0.22851589182304D+03
 E2 =    -0.6785875550D+00 EUMP2 =    -0.22851589182304D+03
 SCF Done:  E(RHF) =  -227.837444146     A.U. after    9 cycles
 E2 =    -0.6784463541D+00 EUMP2 =    -0.22851589049980D+03
 E2 =    -0.6784463541D+00 EUMP2 =    -0.22851589049980D+03
 SCF Done:  E(RHF) =  -227.837842041     A.U. after   10 cycles
 E2 =    -0.6780150893D+00 EUMP2 =    -0.22851585713015D+03
 E2 =    -0.6780150893D+00 EUMP2 =    -0.22851585713015D+03
 SCF Done:  E(RHF) =  -227.836848183     A.U. after   10 cycles
 E2 =    -0.6790213693D+00 EUMP2 =    -0.22851586955237D+03
 E2 =    -0.6790213693D+00 EUMP2 =    -0.22851586955237D+03

 Alpha  occ. eigenvalues --  -20.62748 -20.56112 -11.40427 -11.27296  -1.45696
 Alpha  occ. eigenvalues --   -1.36364  -1.02991  -0.82761  -0.71929  -0.66996
 Alpha  occ. eigenvalues --   -0.64964  -0.60273  -0.56947  -0.55947  -0.47944
 Alpha  occ. eigenvalues --   -0.45396
 Alpha virt. eigenvalues --    0.02342   0.04509   0.04835   0.06721   0.09237
 Alpha virt. eigenvalues --    0.11884   0.12044   0.12557   0.14098   0.15025
 Alpha virt. eigenvalues --    0.16086   0.16349   0.19823   0.22028   0.23133

 Mulliken charges:
               1
     1  C    0.716070
     2  O   -0.509003
     3  O   -0.540311
     4  C    0.248223
     5  H    0.180608
     6  H   -0.103436
     7  H    0.003952
     8  H    0.003897
 Sum of Mulliken charges =  -0.00000

 Dipole moment (field-independent basis, Debye):
    X=             -3.3190    Y=              2.7957    Z=             -0.0003  Tot=              4.3396
 Quadrupole moment (field-independent basis, Debye-Ang):
   XX=            -25.9352   YY=            -23.9689   ZZ=            -23.8378
   XY=              0.4062   XZ=             -0.0007   YZ=              0.0006

  Exact polarizability:      36.804      -1.817      40.316       0.001       0.000      26.684
 Approx polarizability:      27.691      -2.339      32.924       0.001      -0.001      24.236

                      1                      2                      3
                      A                      A                      A
 Frequencies --    114.2769               429.2590               462.3825
 Red. masses --      1.0721                 2.6752                 1.2279
 Frc consts  --      0.0082                 0.2904                 0.1547
 IR Inten    --      0.7644                 3.6551                95.4757

                      4                      5                      6
                      A                      A                      A
 Frequencies --    588.2093               592.2854               859.2193
 Red. masses --      5.8629                 2.1213                 5.8545
 Frc consts  --      1.1952                 0.4384                 2.5465
 IR Inten    --      7.8163                 2.5095                40.5159

                      7                      8                      9
                      A                      A                      A
 Frequencies --    985.2873              1050.0411              1200.3224
 Red. masses --      1.5036                 1.7809                 1.7053
 Frc consts  --      0.8600                 1.1569                 1.4476
 IR Inten    --      7.0376                 2.9850                 3.8860

                     10                     11                     12
                      A                      A                      A
 Frequencies --   1297.7341              1385.2671              1462.4180
 Red. masses --      1.8512                 1.4795                 1.0501
 Frc consts  --      1.8369                 1.6728                 1.3233
 IR Inten    --    340.0761                71.3629                 6.2481

                     13                     14                     15
                      A                      A                      A
 Frequencies --   1478.1851              1814.0007              3074.9999
 Red. masses --      1.0431                 9.5419                 1.0377
 Frc consts  --      1.3428                18.4995                 5.7811
 IR Inten    --      7.1479               239.4109                 4.0716

                     16                     17                     18
                      A                      A                      A
 Frequencies --   3161.8635              3214.2669              3800.7003
 Red. masses --      1.1006                 1.1020                 1.0663
 Frc consts  --      6.4827                 6.7081                 9.0754
 IR Inten    --      4.5435                 2.7353                55.6746

 - Thermochemistry -
 -------------------
 Temperature   298.150 Kelvin.  Pressure   1.00000 Atm.
 Atom     1 has atomic number  6 and mass  12.00000

 Molecular mass:    60.02113 amu.
 Principal axes and moments of inertia in atomic units:
                           1         2         3
     Eigenvalues --   167.06763 190.11692 345.70295
           X            1.00000   0.00098  -0.00005
           Y           -0.00098   1.00000  -0.00007
           Z            0.00005   0.00007   1.00000
 This molecule is an asymmetric top.
 Rotational symmetry number  1.
 Rotational temperatures (Kelvin)      0.51844     0.45558     0.25054
 Rotational constants (GHZ):          10.80246     9.49280     5.22050
 Zero-point vibrational energy     161320.7 (Joules/Mol)
                                   38.55658 (Kcal/Mol)
 Warning -- explicit consideration of   5 degrees of freedom as
           vibrations may cause significant error
 Vibrational temperatures:    164.42   617.61   665.27   846.30   852.17
          (Kelvin)           1236.22  1417.61  1510.77  1727.00  1867.15
                             1993.09  2104.09  2126.78  2609.94  4424.24
                             4549.22  4624.61  5468.36

 Zero-point correction=                           0.061444 (Hartree/Particle)
 Thermal correction to Energy=                    0.066031
 Thermal correction to Enthalpy=                  0.066975
 Thermal correction to Gibbs Free Energy=         0.034517
 Sum of electronic and zero-point Energies=           -228.454517
 Sum of electronic and thermal Energies=              -228.449930
 Sum of electronic and thermal Enthalpies=            -228.448986
 Sum of electronic and thermal Free Energies=         -228.481444

                     E (Thermal)             CV                S
                      KCal/Mol        Cal/Mol-Kelvin    Cal/Mol-Kelvin
 Total                   41.435             14.677             68.313
 Electronic               0.000              0.000              0.000
 Translational            0.889              2.981             38.196
 Rotational               0.889              2.981             23.911
 Vibrational             39.658              8.716              6.206
 Vibration     1          0.607              1.938              3.195
 Vibration     2          0.791              1.407              0.861
 Vibration     3          0.820              1.333              0.759
 Vibration     4          0.945              1.057              0.470
 Vibration     5          0.950              1.048              0.463

 ## DEPERTURBED TRANSITIONS MOMENTS ##

 Electric dipole : Fundamental Bands
 ------------------------------------------------------------------------

 ## AFTER VARIATIONAL CORRECTION

 Electric dipole : Fundamental Bands
 ------------------------------------------------------------------------

 Optimization completed.
    -- Stationary point found.
 Normal termination of Gaussian 16 at Fri Mar 21 03:34:16 2025.
