 Gaussian 16, Revision A.03,
 Gaussian 16:  ES64L-G16RevA.03 25-Dec-2016

 ----------------------------------
 # mp2/aug-cc-pVDZ opt freq(vibrot)
 ----------------------------------

 ----
 blah
 ----
 Symbolic Z-matrix:
 Charge =  0 Multiplicity = 1

 SCF Done:  E(RHF) =  -227.836222477     A.U. after   13 cycles
 E2 =    -0.6774957054D+00 EUMP2 =    -0.22851371818252D+03
 SCF Done:  E(RHF) =  -227.837747299     A.U. after   11 cycles
 E2 =    -0.6780033505D+00 EUMP2 =    -0.22851575064947D+03
 SCF Done:  E(RHF) =  -227.837519127     A.U. after   10 cycles
 E2 =    -0.6784258751D+00 EUMP2 =    -0.22851594500178D+03
 SCF Done:  E(RHF) =  -227.837455836     A.U. after   10 cycles
 E2 =    -0.6785040481D+00 EUMP2 =    -0.22851595988438D+03
 SCF Done:  E(RHF) =  -227.837431078     A.U. after    8 cycles
 E2 =    -0.6785299337D+00 EUMP2 =    -0.22851596101167D+03
 Optimization completed.
    -- Stationary point found.
 Normal termination of Gaussian 16 at Mon Mar 20 10:51:47 2023.

 ----------------------------------------------------------------------
 #N Geom=AllCheck Guess=TCheck SCRF=Check GenChk RMP2(FC)/Aug-CC-pVDZ F
 req
 ----------------------------------------------------------------------

 Structure from the checkpoint file:  "/gscratch/scrubbed/gds001/Gau-8413.chk"
 ----
 blah
 ----
 Charge =  0 Multiplicity = 1

                         Standard orientation:
 ---------------------------------------------------------------------
 Center     Atomic      Atomic             Coordinates (Angstroms)
 Number     Number       Type             X           Y           Z
 ---------------------------------------------------------------------
      1          6           0       -0.126571   -0.139092   -0.000020
      2          8           0       -0.702113   -1.207814    0.000008
      3          8           0       -0.859974    1.025442    0.000007
      4          6           0        1.378364    0.040770   -0.000003
      5          1           0       -0.259115    1.785913    0.000010
      6          1           0        1.857613   -0.944682    0.000007
      7          1           0        1.693713    0.603838    0.892802
      8          1           0        1.693731    0.603831   -0.892806
 ---------------------------------------------------------------------

 SCF Done:  E(RHF) =  -227.837431078     A.U. after    1 cycles
 E2 =    -0.6785299257D+00 EUMP2 =    -0.22851596100367D+03
 E2 =    -0.6785299257D+00 EUMP2 =    -0.22851596100367D+03

 The electronic state is 1-A.
 Alpha  occ. eigenvalues --  -20.62674 -20.56127 -11.40446 -11.27303  -1.45819
 Alpha  occ. eigenvalues --   -1.36478  -1.03005  -0.82980  -0.72009  -0.67018
 Alpha  occ. eigenvalues --   -0.64976  -0.60310  -0.56958  -0.56007  -0.47968
 Alpha  occ. eigenvalues --   -0.45412
 Alpha virt. eigenvalues --    0.02353   0.04515   0.04837   0.06720   0.09244
 Alpha virt. eigenvalues --    0.11884   0.12040   0.12560   0.14131   0.15020
 Alpha virt. eigenvalues --    0.16084   0.16335   0.19824   0.22083   0.23133

 Mulliken charges:
               1
     1  C    0.954822
     2  O   -0.686443
     3  O   -0.699935
     4  C    0.199814
     5  H    0.209975
     6  H   -0.065354
     7  H    0.043557
     8  H    0.043564
 Sum of Mulliken charges =  -0.00000

 Dipole moment (field-independent basis, Debye):
    X=              3.7725    Y=              3.1531    Z=             -0.0001  Tot=              4.9167
 Quadrupole moment (field-independent basis, Debye-Ang):
   XX=            -25.3846   YY=            -23.9198   ZZ=            -23.3033
   XY=             -0.5920   XZ=              0.0001   YZ=              0.0000

  Exact polarizability:  36.757   1.788  40.182  -0.000  -0.000  26.662
 Approx polarizability:  27.637   2.298  32.838  -0.000  -0.000  24.219

                      1                      2                      3
                      A                      A                      A
 Frequencies --    114.6180               429.4024               465.3258
 Red. masses --      1.0722                 2.6764                 1.2325
 Frc consts  --      0.0083                 0.2908                 0.1572
 IR Inten    --      0.7455                 3.6478                95.2201

                      4                      5                      6
                      A                      A                      A
 Frequencies --    588.2824               592.5248               859.2052
 Red. masses --      5.8676                 2.1067                 5.8566
 Frc consts  --      1.1964                 0.4358                 2.5474
 IR Inten    --      7.8164                 2.7694                40.4160

                      7                      8                      9
                      A                      A                      A
 Frequencies --    985.4638              1049.9086              1200.6653
 Red. masses --      1.5041                 1.7815                 1.7103
 Frc consts  --      0.8606                 1.1570                 1.4527
 IR Inten    --      7.1097                 2.9901                 4.1380

                     10                     11                     12
                      A                      A                      A
 Frequencies --   1298.2413              1385.1994              1462.5552
 Red. masses --      1.8423                 1.4804                 1.0501
 Frc consts  --      1.8295                 1.6736                 1.3235
 IR Inten    --    339.5338                71.7043                 6.2539

                     13                     14                     15
                      A                      A                      A
 Frequencies --   1478.0145              1813.7976              3074.8864
 Red. masses --      1.0431                 9.5359                 1.0377
 Frc consts  --      1.3425                18.4836                 5.7809
 IR Inten    --      7.1482               239.4218                 4.0912

                     16                     17                     18
                      A                      A                      A
 Frequencies --   3161.4061              3215.0196              3797.5874
 Red. masses --      1.1005                 1.1020                 1.0663
 Frc consts  --      6.4805                 6.7112                 9.0605
 IR Inten    --      4.5690                 2.7130                55.6931

 - Thermochemistry -
 -------------------
 Temperature   298.150 Kelvin.  Pressure   1.00000 Atm.
 Atom     1 has atomic number  6 and mass  12.00000

 Molecular mass:    60.02113 amu.
 Principal axes and moments of inertia in atomic units:
                           1         2         3
     Eigenvalues --   167.09562 190.09792 345.71848
           X            1.00000  -0.00059   0.00000
           Y            0.00059   1.00000  -0.00000
           Z           -0.00000   0.00000   1.00000
 This molecule is an asymmetric top.
 Rotational symmetry number  1.
 Rotational temperatures (Kelvin)      0.51835     0.45563     0.25053
 Rotational constants (GHZ):          10.80065     9.49375     5.22026
 Zero-point vibrational energy     161329.0 (Joules/Mol)
                                   38.55856 (Kcal/Mol)
 Warning -- explicit consideration of   5 degrees of freedom as
           vibrations may cause significant error
 Vibrational temperatures:    164.91   617.81   669.50   846.41   852.51
          (Kelvin)           1236.20  1417.86  1510.58  1727.49  1867.88
                             1992.99  2104.29  2126.53  2609.65  4424.08
                             4548.56  4625.70  5463.88

 Zero-point correction=                           0.061447 (Hartree/Particle)
 Thermal correction to Energy=                    0.066031
 Thermal correction to Enthalpy=                  0.066975
 Thermal correction to Gibbs Free Energy=         0.034524
 Sum of electronic and zero-point Energies=           -228.454514
 Sum of electronic and thermal Energies=              -228.449930
 Sum of electronic and thermal Enthalpies=            -228.448986
 Sum of electronic and thermal Free Energies=         -228.481437

                     E (Thermal)             CV                S
                      KCal/Mol        Cal/Mol-Kelvin    Cal/Mol-Kelvin
 Total                   41.435             14.669             68.298
 Electronic               0.000              0.000              0.000
 Translational            0.889              2.981             38.196
 Rotational               0.889              2.981             23.911
 Vibrational             39.657              8.707              6.191
 Vibration     1          0.608              1.937              3.189
 Vibration     2          0.791              1.406              0.861
 Vibration     3          0.823              1.327              0.751
 Vibration     4          0.945              1.057              0.470
 Vibration     5          0.950              1.048              0.463

 Optimization completed.
    -- Stationary point found.
 Normal termination of Gaussian 16 at Mon Mar 20 10:52:48 2023.
