 Gaussian 16, Revision C.01,
 Gaussian 16:  EM64L-G16RevC.01  3-Jul-2019

 ----------------------------------------------
 # MP2/aug-cc-pVDZ opt freq=(vibrot,anharmonic)
 ----------------------------------------------

 ----
 blah
 ----
 Symbolic Z-matrix:
 Charge =  0 Multiplicity = 1

 SCF Done:  E(RHF) =  -227.838165334     A.U. after   13 cycles
 E2 =    -0.6750592395D+00 EUMP2 =    -0.22851322457352D+03
 SCF Done:  E(RHF) =  -227.846882767     A.U. after   12 cycles
 E2 =    -0.6767590129D+00 EUMP2 =    -0.22852364177959D+03
 SCF Done:  E(RHF) =  -227.847111016     A.U. after   11 cycles
 E2 =    -0.6771863603D+00 EUMP2 =    -0.22852429737647D+03
 SCF Done:  E(RHF) =  -227.846937302     A.U. after   10 cycles
 E2 =    -0.6774382176D+00 EUMP2 =    -0.22852437551939D+03
 SCF Done:  E(RHF) =  -227.846913824     A.U. after    9 cycles
 E2 =    -0.6774674371D+00 EUMP2 =    -0.22852438126155D+03
 Optimization completed.
    -- Stationary point found.
 Normal termination of Gaussian 16 at Fri Mar 21 00:17:34 2025.

 ----------------------------------------------------------------------
 #N Geom=AllCheck Guess=TCheck SCRF=Check GenChk RMP2(FC)/Aug-CC-pVDZ F
 req
 ----------------------------------------------------------------------

 Structure from the checkpoint file:  "/scr/Gau-85873.chk"
 ----
 blah
 ----
 Charge =  0 Multiplicity = 1

                         Standard orientation:
 ---------------------------------------------------------------------
 Center     Atomic      Atomic             Coordinates (Angstroms)
 Number     Number       Type             X           Y           Z
 ---------------------------------------------------------------------
      1          6           0       -0.088815    0.127368    0.000080
      2          8           0       -0.648737    1.211705   -0.000203
      3          8           0       -0.778104   -1.056089    0.000097
      4          6           0        1.399074   -0.109688    0.000044
      5          1           0       -1.721076   -0.812345   -0.000017
      6          1           0        1.920827    0.853515   -0.000173
      7          1           0        1.676673   -0.696269   -0.888072
      8          1           0        1.676749   -0.695908    0.888373
 ---------------------------------------------------------------------

 SCF Done:  E(RHF) =  -227.846913824     A.U. after    1 cycles
 E2 =    -0.6774674383D+00 EUMP2 =    -0.22852438126272D+03
 E2 =    -0.6774674383D+00 EUMP2 =    -0.22852438126272D+03
 SCF Done:  E(RHF) =  -227.846913121     A.U. after    8 cycles
 E2 =    -0.6774681003D+00 EUMP2 =    -0.22852438122149D+03
 E2 =    -0.6774681003D+00 EUMP2 =    -0.22852438122149D+03
 SCF Done:  E(RHF) =  -227.846913121     A.U. after    8 cycles
 E2 =    -0.6774681030D+00 EUMP2 =    -0.22852438122370D+03
 E2 =    -0.6774681030D+00 EUMP2 =    -0.22852438122370D+03
 SCF Done:  E(RHF) =  -227.846924820     A.U. after    8 cycles
 E2 =    -0.6774551022D+00 EUMP2 =    -0.22852437992191D+03
 E2 =    -0.6774551022D+00 EUMP2 =    -0.22852437992191D+03
 SCF Done:  E(RHF) =  -227.846899680     A.U. after    8 cycles
 E2 =    -0.6774805551D+00 EUMP2 =    -0.22852438023494D+03
 E2 =    -0.6774805551D+00 EUMP2 =    -0.22852438023494D+03
 E2 =    -0.6774688255D+00 EUMP2 =    -0.22852437906157D+03
 E2 =    -0.6774688255D+00 EUMP2 =    -0.22852437906157D+03
 E2 =    -0.6774687674D+00 EUMP2 =    -0.22852437934173D+03
 E2 =    -0.6774687674D+00 EUMP2 =    -0.22852437934173D+03
 E2 =    -0.6774460276D+00 EUMP2 =    -0.22852437819230D+03
 SCF Done:  E(RHF) =  -227.847172822     A.U. after   10 cycles
 E2 =    -0.6771879770D+00 EUMP2 =    -0.22852436079896D+03
 E2 =    -0.6771879770D+00 EUMP2 =    -0.22852436079896D+03
 SCF Done:  E(RHF) =  -227.846610799     A.U. after   10 cycles
 E2 =    -0.6777475595D+00 EUMP2 =    -0.22852435835857D+03
 E2 =    -0.6777475595D+00 EUMP2 =    -0.22852435835857D+03
 SCF Done:  E(RHF) =  -227.847092793     A.U. after    9 cycles
 E2 =    -0.6772229072D+00 EUMP2 =    -0.22852431569998D+03
 E2 =    -0.6772229072D+00 EUMP2 =    -0.22852431569998D+03
 SCF Done:  E(RHF) =  -227.846604622     A.U. after    9 cycles
 E2 =    -0.6777131184D+00 EUMP2 =    -0.22852431773995D+03
 E2 =    -0.6777131184D+00 EUMP2 =    -0.22852431773995D+03
 SCF Done:  E(RHF) =  -227.846845952     A.U. after    9 cycles
 E2 =    -0.6774669802D+00 EUMP2 =    -0.22852431293204D+03
 E2 =    -0.6774669802D+00 EUMP2 =    -0.22852431293204D+03
 SCF Done:  E(RHF) =  -227.846845980     A.U. after    9 cycles
 E2 =    -0.6774669838D+00 EUMP2 =    -0.22852431296335D+03
 E2 =    -0.6774669838D+00 EUMP2 =    -0.22852431296335D+03
 SCF Done:  E(RHF) =  -227.846798815     A.U. after    9 cycles
 E2 =    -0.6775139262D+00 EUMP2 =    -0.22852431274122D+03
 E2 =    -0.6775139262D+00 EUMP2 =    -0.22852431274122D+03
 SCF Done:  E(RHF) =  -227.846889225     A.U. after    9 cycles
 E2 =    -0.6774201768D+00 EUMP2 =    -0.22852430940156D+03
 E2 =    -0.6774201768D+00 EUMP2 =    -0.22852430940156D+03
 SCF Done:  E(RHF) =  -227.847324124     A.U. after    9 cycles
 E2 =    -0.6769649394D+00 EUMP2 =    -0.22852428906294D+03
 E2 =    -0.6769649394D+00 EUMP2 =    -0.22852428906294D+03
 SCF Done:  E(RHF) =  -227.846312473     A.U. after    9 cycles
 E2 =    -0.6779720980D+00 EUMP2 =    -0.22852428457137D+03
 E2 =    -0.6779720980D+00 EUMP2 =    -0.22852428457137D+03

 Alpha  occ. eigenvalues --  -20.62632 -20.56582 -11.40479 -11.26014  -1.46199
 Alpha  occ. eigenvalues --   -1.36136  -1.02835  -0.81979  -0.70724  -0.67835
 Alpha  occ. eigenvalues --   -0.64737  -0.58485  -0.57353  -0.56034  -0.48346
 Alpha  occ. eigenvalues --   -0.45668
 Alpha virt. eigenvalues --    0.03293   0.04702   0.05579   0.06252   0.09798
 Alpha virt. eigenvalues --    0.11815   0.11846   0.14140   0.15121   0.15482
 Alpha virt. eigenvalues --    0.16369   0.16465   0.19571   0.21401   0.23242

 Mulliken charges:
               1
     1  C    0.602111
     2  O   -0.535902
     3  O   -0.510457
     4  C    0.265147
     5  H    0.160122
     6  H   -0.027595
     7  H    0.023278
     8  H    0.023296
 Sum of Mulliken charges =  -0.00000

 Dipole moment (field-independent basis, Debye):
    X=              0.7826    Y=             -1.4564    Z=              0.0003  Tot=              1.6534
 Quadrupole moment (field-independent basis, Debye-Ang):
   XX=            -19.8246   YY=            -29.1472   ZZ=            -23.8477
   XY=              2.2025   XZ=             -0.0001   YZ=              0.0009

  Exact polarizability:      38.790      -0.946      38.160       0.001      -0.002      26.635
 Approx polarizability:      28.613      -1.619      31.385       0.001      -0.001      24.184

                      1                      2                      3
                      A                      A                      A
 Frequencies --     79.5928               418.8946               551.8022
 Red. masses --      1.0862                 2.8815                 1.6469
 Frc consts  --      0.0041                 0.2979                 0.2955
 IR Inten    --      0.2276                 3.9064                17.6146

                      4                      5                      6
                      A                      A                      A
 Frequencies --    576.9404               659.7263               867.0919
 Red. masses --      4.3749                 1.4254                 4.2214
 Frc consts  --      0.8580                 0.3655                 1.8700
 IR Inten    --     36.9321                96.9118                 8.6940

                      7                      8                      9
                      A                      A                      A
 Frequencies --    994.7730              1056.4328              1204.7543
 Red. masses --      1.5860                 1.7946                 1.8683
 Frc consts  --      0.9247                 1.1801                 1.5977
 IR Inten    --     64.4994                 4.3951               215.6024

                     10                     11                     12
                      A                      A                      A
 Frequencies --   1328.1751              1403.1826              1462.6791
 Red. masses --      1.5821                 1.7719                 1.0543
 Frc consts  --      1.6444                 2.0555                 1.3290
 IR Inten    --     22.2382                67.3094                13.4899

                     13                     14                     15
                      A                      A                      A
 Frequencies --   1469.2023              1791.4121              3090.5042
 Red. masses --      1.0445                 8.7966                 1.0363
 Frc consts  --      1.3283                16.6325                 5.8317
 IR Inten    --      8.0840               280.4327                 1.6995

                     16                     17                     18
                      A                      A                      A
 Frequencies --   3179.4019              3222.7606              3737.9260
 Red. masses --      1.1000                 1.1043                 1.0643
 Frc consts  --      6.5514                 6.7574                 8.7610
 IR Inten    --      2.5125                 3.2729                70.3376

 - Thermochemistry -
 -------------------
 Temperature   298.150 Kelvin.  Pressure   1.00000 Atm.
 Atom     1 has atomic number  6 and mass  12.00000

 Molecular mass:    60.02113 amu.
 Principal axes and moments of inertia in atomic units:
                           1         2         3
     Eigenvalues --   162.67003 192.12495 343.43737
           X            0.99716   0.07531  -0.00003
           Y           -0.07531   0.99716   0.00013
           Z            0.00004  -0.00013   1.00000
 This molecule is an asymmetric top.
 Rotational symmetry number  1.
 Rotational temperatures (Kelvin)      0.53245     0.45082     0.25220
 Rotational constants (GHZ):          11.09449     9.39358     5.25494
 Zero-point vibrational energy     162065.6 (Joules/Mol)
                                   38.73461 (Kcal/Mol)
 Warning -- explicit consideration of   4 degrees of freedom as
           vibrations may cause significant error
 Vibrational temperatures:    114.52   602.70   793.92   830.09   949.20
          (Kelvin)           1247.55  1431.26  1519.97  1733.37  1910.95
                             2018.87  2104.47  2113.85  2577.44  4446.55
                             4574.45  4636.83  5378.04

 Zero-point correction=                           0.061728 (Hartree/Particle)
 Thermal correction to Energy=                    0.066292
 Thermal correction to Enthalpy=                  0.067237
 Thermal correction to Gibbs Free Energy=         0.034589
 Sum of electronic and zero-point Energies=           -228.462654
 Sum of electronic and thermal Energies=              -228.458089
 Sum of electronic and thermal Enthalpies=            -228.457145
 Sum of electronic and thermal Free Energies=         -228.489792

                     E (Thermal)             CV                S
                      KCal/Mol        Cal/Mol-Kelvin    Cal/Mol-Kelvin
 Total                   41.599             14.364             68.713
 Electronic               0.000              0.000              0.000
 Translational            0.889              2.981             38.196
 Rotational               0.889              2.981             23.888
 Vibrational             39.822              8.403              6.628
 Vibration     1          0.600              1.963              3.901
 Vibration     2          0.782              1.429              0.896
 Vibration     3          0.907              1.136              0.540
 Vibration     4          0.933              1.081              0.491

 ## DEPERTURBED TRANSITIONS MOMENTS ##

 Electric dipole : Fundamental Bands
 ------------------------------------------------------------------------

 ## AFTER VARIATIONAL CORRECTION

 Electric dipole : Fundamental Bands
 ------------------------------------------------------------------------

 Optimization completed.
    -- Stationary point found.
 Normal termination of Gaussian 16 at Fri Mar 21 00:50:38 2025.
