 Gaussian 16, Revision C.01,
 Gaussian 16:  EM64L-G16RevC.01  3-Jul-2019

 ----------------------------------------------
 # MP2/aug-cc-pVTZ opt freq=(vibrot,anharmonic)
 ----------------------------------------------

 ----
 blah
 ----
 Symbolic Z-matrix:
 Charge =  0 Multiplicity = 1

 SCF Done:  E(RHF) =  -227.893768753     A.U. after   12 cycles
 E2 =    -0.8170970827D+00 EUMP2 =    -0.22871086583537D+03
 SCF Done:  E(RHF) =  -227.904874591     A.U. after   11 cycles
 E2 =    -0.8170022990D+00 EUMP2 =    -0.22872187688969D+03
 SCF Done:  E(RHF) =  -227.905368475     A.U. after   10 cycles
 E2 =    -0.8171670269D+00 EUMP2 =    -0.22872253550222D+03
 SCF Done:  E(RHF) =  -227.905147183     A.U. after   10 cycles
 E2 =    -0.8174626789D+00 EUMP2 =    -0.22872260986221D+03
 SCF Done:  E(RHF) =  -227.905113739     A.U. after    8 cycles
 E2 =    -0.8175019110D+00 EUMP2 =    -0.22872261564998D+03
 Optimization completed.
    -- Stationary point found.
 Normal termination of Gaussian 16 at Fri Mar 21 03:42:40 2025.

 ----------------------------------------------------------------------
 #N Geom=AllCheck Guess=TCheck SCRF=Check GenChk RMP2(FC)/Aug-CC-pVTZ F
 req
 ----------------------------------------------------------------------

 Structure from the checkpoint file:  "/scr/Gau-51407.chk"
 ----
 blah
 ----
 Charge =  0 Multiplicity = 1

                         Standard orientation:
 ---------------------------------------------------------------------
 Center     Atomic      Atomic             Coordinates (Angstroms)
 Number     Number       Type             X           Y           Z
 ---------------------------------------------------------------------
      1          6           0       -0.089233    0.125992    0.000068
      2          8           0       -0.643658    1.201612   -0.000199
      3          8           0       -0.772671   -1.047005    0.000099
      4          6           0        1.389974   -0.108767    0.000044
      5          1           0       -1.712024   -0.804500   -0.000005
      6          1           0        1.907977    0.843054   -0.000164
      7          1           0        1.665086   -0.689555   -0.878113
      8          1           0        1.665148   -0.689203    0.878413
 ---------------------------------------------------------------------

 SCF Done:  E(RHF) =  -227.905113739     A.U. after    1 cycles
 E2 =    -0.8175018878D+00 EUMP2 =    -0.22872261562677D+03
 E2 =    -0.8175018878D+00 EUMP2 =    -0.22872261562677D+03

                      1                      2                      3
                      A                      A                      A
 Frequencies --     77.8351               422.7592               550.8759
 Red. masses --      1.0852                 2.8888                 1.5541
 Frc consts  --      0.0039                 0.3042                 0.2779
 IR Inten    --      0.2059                 3.8383                24.0880

                      4                      5                      6
                      A                      A                      A
 Frequencies --    583.5939               663.8148               873.9083
 Red. masses --      4.2787                 1.5088                 4.0219
 Frc consts  --      0.8586                 0.3917                 1.8097
 IR Inten    --     37.7417                89.7458                 5.3589

                      7                      8                      9
                      A                      A                      A
 Frequencies --   1008.5107              1076.1627              1207.0184
 Red. masses --      1.6055                 1.7888                 1.8037
 Frc consts  --      0.9621                 1.2206                 1.5483
 IR Inten    --     70.2740                 5.1403               201.1611

                     10                     11                     12
                      A                      A                      A
 Frequencies --   1342.7189              1422.1455              1492.5819
 Red. masses --      1.8148                 1.6189                 1.0530
 Frc consts  --      1.9277                 1.9291                 1.3822
 IR Inten    --     42.5834                61.3311                15.5321

                     13                     14                     15
                      A                      A                      A
 Frequencies --   1500.9426              1810.1084              3097.5691
 Red. masses --      1.0443                 8.9481                 1.0359
 Frc consts  --      1.3862                17.2738                 5.8561
 IR Inten    --      8.7201               288.7064                 0.9758

                     16                     17                     18
                      A                      A                      A
 Frequencies --   3181.0948              3224.3864              3748.7344
 Red. masses --      1.0998                 1.1041                 1.0640
 Frc consts  --      6.5573                 6.7630                 8.8099
 IR Inten    --      1.3268                 2.0025                75.4972

 - Thermochemistry -
 -------------------
 Temperature   298.150 Kelvin.  Pressure   1.00000 Atm.
 Atom     1 has atomic number  6 and mass  12.00000

 Molecular mass:    60.02113 amu.
 Principal axes and moments of inertia in atomic units:
                           1         2         3
     Eigenvalues --   159.86971 189.49371 338.25911
           X            0.99730   0.07343  -0.00003
           Y           -0.07343   0.99730   0.00013
           Z            0.00004  -0.00013   1.00000
 This molecule is an asymmetric top.
 Rotational symmetry number  1.
 Rotational temperatures (Kelvin)      0.54178     0.45708     0.25606
 Rotational constants (GHZ):          11.28882     9.52402     5.33538
 Zero-point vibrational energy     163199.1 (Joules/Mol)
                                   39.00552 (Kcal/Mol)
 Warning -- explicit consideration of   4 degrees of freedom as
           vibrations may cause significant error
 Vibrational temperatures:    111.99   608.26   792.59   839.66   955.08
          (Kelvin)           1257.36  1451.02  1548.36  1736.63  1931.87
                             2046.15  2147.49  2159.52  2604.34  4456.71
                             4576.89  4639.17  5393.59

 Zero-point correction=                           0.062159 (Hartree/Particle)
 Thermal correction to Energy=                    0.066710
 Thermal correction to Enthalpy=                  0.067655
 Thermal correction to Gibbs Free Energy=         0.035032
 Sum of electronic and zero-point Energies=           -228.660456
 Sum of electronic and thermal Energies=              -228.655905
 Sum of electronic and thermal Enthalpies=            -228.654961
 Sum of electronic and thermal Free Energies=         -228.687583

                     E (Thermal)             CV                S
                      KCal/Mol        Cal/Mol-Kelvin    Cal/Mol-Kelvin
 Total                   41.861             14.260             68.659
 Electronic               0.000              0.000              0.000
 Translational            0.889              2.981             38.196
 Rotational               0.889              2.981             23.842
 Vibrational             40.084              8.298              6.621
 Vibration     1          0.599              1.964              3.945
 Vibration     2          0.785              1.421              0.883
 Vibration     3          0.906              1.138              0.542
 Vibration     4          0.940              1.067              0.479

 SCF Done:  E(RHF) =  -227.905113295     A.U. after    7 cycles
 E2 =    -0.8175022996D+00 EUMP2 =    -0.22872261559436D+03
 E2 =    -0.8175022996D+00 EUMP2 =    -0.22872261559436D+03
 SCF Done:  E(RHF) =  -227.905113295     A.U. after    7 cycles
 E2 =    -0.8175023008D+00 EUMP2 =    -0.22872261559618D+03
 E2 =    -0.8175023008D+00 EUMP2 =    -0.22872261559618D+03
 SCF Done:  E(RHF) =  -227.905125333     A.U. after    7 cycles
 E2 =    -0.8174889705D+00 EUMP2 =    -0.22872261430355D+03
 E2 =    -0.8174889705D+00 EUMP2 =    -0.22872261430355D+03
 SCF Done:  E(RHF) =  -227.905099035     A.U. after    7 cycles
 E2 =    -0.8175155216D+00 EUMP2 =    -0.22872261455643D+03
 E2 =    -0.8175155216D+00 EUMP2 =    -0.22872261455643D+03
 SCF Done:  E(RHF) =  -227.905110225     A.U. after    8 cycles
 E2 =    -0.8175032613D+00 EUMP2 =    -0.22872261348667D+03
 E2 =    -0.8175032613D+00 EUMP2 =    -0.22872261348667D+03
 SCF Done:  E(RHF) =  -227.905110511     A.U. after    8 cycles
 E2 =    -0.8175032118D+00 EUMP2 =    -0.22872261372295D+03
 E2 =    -0.8175032118D+00 EUMP2 =    -0.22872261372295D+03
 SCF Done:  E(RHF) =  -227.905129843     A.U. after    7 cycles
 E2 =    -0.8174827027D+00 EUMP2 =    -0.22872261254597D+03
 E2 =    -0.8174827027D+00 EUMP2 =    -0.22872261254597D+03
 SCF Done:  E(RHF) =  -227.905091887     A.U. after    7 cycles
 E2 =    -0.8175222395D+00 EUMP2 =    -0.22872261412669D+03
 E2 =    -0.8175222395D+00 EUMP2 =    -0.22872261412669D+03
 SCF Done:  E(RHF) =  -227.905108766     A.U. after    9 cycles
 E2 =    -0.8175039755D+00 EUMP2 =    -0.22872261274190D+03
 E2 =    -0.8175039755D+00 EUMP2 =    -0.22872261274190D+03

 Alpha  occ. eigenvalues --  -20.61586 -20.55304 -11.39162 -11.24684  -1.46580
 Alpha  occ. eigenvalues --   -1.36221  -1.03134  -0.82328  -0.70781  -0.68175
 Alpha  occ. eigenvalues --   -0.65231  -0.58662  -0.57646  -0.56359  -0.48541
 Alpha  occ. eigenvalues --   -0.45740
 Alpha virt. eigenvalues --    0.02737   0.03882   0.04483   0.05094   0.08182
 Alpha virt. eigenvalues --    0.09869   0.09940   0.11946   0.12529   0.12755
 Alpha virt. eigenvalues --    0.13546   0.15882   0.17020   0.17375   0.18091

 Mulliken charges:
               1
     1  C    0.281385
     2  O   -0.546241
     3  O   -0.331510
     4  C   -0.619630
     5  H    0.238453
     6  H    0.339076
     7  H    0.319122
     8  H    0.319345
 Sum of Mulliken charges =  -0.00000

 Dipole moment (field-independent basis, Debye):
    X=              0.7812    Y=             -1.4701    Z=             -0.0143  Tot=              1.6649
 Quadrupole moment (field-independent basis, Debye-Ang):
   XX=            -19.5537   YY=            -28.7210   ZZ=            -23.5250
   XY=              2.1671   XZ=              0.0295   YZ=              0.0122

  Exact polarizability:      38.264      -0.851      37.519       0.007       0.003      26.489
 Approx polarizability:      28.174      -1.463      30.759       0.008       0.001      24.038

 SCF Done:  E(RHF) =  -227.905108552     A.U. after    9 cycles
