 Gaussian 16, Revision C.01,
 Gaussian 16:  EM64L-G16RevC.01  3-Jul-2019

 ----------------------------------------------
 # MP2/aug-cc-pVTZ opt freq=(vibrot,anharmonic)
 ----------------------------------------------

 ----
 blah
 ----
 Symbolic Z-matrix:
 Charge =  0 Multiplicity = 1

 SCF Done:  E(RHF) =  -227.892576819     A.U. after   12 cycles
 E2 =    -0.8208122875D+00 EUMP2 =    -0.22871338910651D+03
 SCF Done:  E(RHF) =  -227.895842083     A.U. after   10 cycles
 E2 =    -0.8184063097D+00 EUMP2 =    -0.22871424839254D+03
 SCF Done:  E(RHF) =  -227.895967656     A.U. after    8 cycles
 E2 =    -0.8183104755D+00 EUMP2 =    -0.22871427813134D+03
 SCF Done:  E(RHF) =  -227.895950296     A.U. after    8 cycles
 E2 =    -0.8183311967D+00 EUMP2 =    -0.22871428149228D+03
 SCF Done:  E(RHF) =  -227.895922776     A.U. after    8 cycles
 E2 =    -0.8183586896D+00 EUMP2 =    -0.22871428146544D+03
 Optimization completed.
    -- Stationary point found.
 Normal termination of Gaussian 16 at Fri Mar 21 00:58:16 2025.

 ----------------------------------------------------------------------
 #N Geom=AllCheck Guess=TCheck SCRF=Check GenChk RMP2(FC)/Aug-CC-pVTZ F
 req
 ----------------------------------------------------------------------

 Structure from the checkpoint file:  "/scr/Gau-30069.chk"
 ----
 blah
 ----
 Charge =  0 Multiplicity = 1

                         Standard orientation:
 ---------------------------------------------------------------------
 Center     Atomic      Atomic             Coordinates (Angstroms)
 Number     Number       Type             X           Y           Z
 ---------------------------------------------------------------------
      1          6           0        0.130222   -0.137688    0.000855
      2          8           0        0.714282   -1.189859   -0.000252
      3          8           0        0.836612    1.029157   -0.000140
      4          6           0       -1.368157    0.022939   -0.000117
      5          1           0        0.225392    1.775638   -0.000312
      6          1           0       -1.833526   -0.956172   -0.000778
      7          1           0       -1.685161    0.577657   -0.882979
      8          1           0       -1.686244    0.576981    0.882774
 ---------------------------------------------------------------------

 SCF Done:  E(RHF) =  -227.895922776     A.U. after    1 cycles
 E2 =    -0.8183586775D+00 EUMP2 =    -0.22871428145335D+03
 E2 =    -0.8183586775D+00 EUMP2 =    -0.22871428145335D+03

                      1                      2                      3
                      A                      A                      A
 Frequencies --    108.4389               431.4614               476.1387
 Red. masses --      1.0713                 2.6720                 1.2165
 Frc consts  --      0.0074                 0.2931                 0.1625
 IR Inten    --      0.7501                 4.0110                95.9777

                      4                      5                      6
                      A                      A                      A
 Frequencies --    596.3741               598.4477               868.4047
 Red. masses --      5.7551                 2.1691                 5.8852
 Frc consts  --      1.2060                 0.4577                 2.6149
 IR Inten    --      7.3156                 1.9629                36.5353

                      7                      8                      9
                      A                      A                      A
 Frequencies --    999.8948              1069.7261              1208.3024
 Red. masses --      1.5015                 1.7728                 1.5986
 Frc consts  --      0.8845                 1.1952                 1.3751
 IR Inten    --      8.0044                 3.4808                 0.3154

                     10                     11                     12
                      A                      A                      A
 Frequencies --   1303.6117              1408.0531              1492.9875
 Red. masses --      2.1946                 1.3926                 1.0498
 Frc consts  --      2.1974                 1.6268                 1.3787
 IR Inten    --    367.7000                55.0481                 7.1712

                     13                     14                     15
                      A                      A                      A
 Frequencies --   1509.9178              1835.9503              3082.1709
 Red. masses --      1.0433                 9.6439                 1.0371
 Frc consts  --      1.4014                19.1524                 5.8048
 IR Inten    --      7.9038               250.7722                 3.1824

                     16                     17                     18
                      A                      A                      A
 Frequencies --   3163.5968              3215.3498              3816.8658
 Red. masses --      1.1004                 1.1020                 1.0661
 Frc consts  --      6.4887                 6.7126                 9.1510
 IR Inten    --      2.8450                 1.5709                61.3365

 - Thermochemistry -
 -------------------
 Temperature   298.150 Kelvin.  Pressure   1.00000 Atm.
 Atom     1 has atomic number  6 and mass  12.00000

 Molecular mass:    60.02113 amu.
 Principal axes and moments of inertia in atomic units:
                           1         2         3
     Eigenvalues --   164.61831 186.96137 340.35833
           X            0.99997   0.00712   0.00002
           Y           -0.00712   0.99997  -0.00001
           Z           -0.00002   0.00001   1.00000
 This molecule is an asymmetric top.
 Rotational symmetry number  1.
 Rotational temperatures (Kelvin)      0.52615     0.46327     0.25448
 Rotational constants (GHZ):          10.96319     9.65302     5.30247
 Zero-point vibrational energy     162606.6 (Joules/Mol)
                                   38.86390 (Kcal/Mol)
 Warning -- explicit consideration of   5 degrees of freedom as
           vibrations may cause significant error
 Vibrational temperatures:    156.02   620.78   685.06   858.05   861.03
          (Kelvin)           1249.44  1438.63  1539.10  1738.48  1875.61
                             2025.87  2148.08  2172.43  2641.52  4434.56
                             4551.71  4626.17  5491.62

 Zero-point correction=                           0.061934 (Hartree/Particle)
 Thermal correction to Energy=                    0.066501
 Thermal correction to Enthalpy=                  0.067445
 Thermal correction to Gibbs Free Energy=         0.035007
 Sum of electronic and zero-point Energies=           -228.652348
 Sum of electronic and thermal Energies=              -228.647780
 Sum of electronic and thermal Enthalpies=            -228.646836
 Sum of electronic and thermal Free Energies=         -228.679275

                     E (Thermal)             CV                S
                      KCal/Mol        Cal/Mol-Kelvin    Cal/Mol-Kelvin
 Total                   41.730             14.533             68.273
 Electronic               0.000              0.000              0.000
 Translational            0.889              2.981             38.196
 Rotational               0.889              2.981             23.864
 Vibrational             39.953              8.571              6.212
 Vibration     1          0.606              1.942              3.297
 Vibration     2          0.793              1.402              0.854
 Vibration     3          0.833              1.303              0.721
 Vibration     4          0.954              1.039              0.456
 Vibration     5          0.956              1.035              0.452

 SCF Done:  E(RHF) =  -227.895922293     A.U. after    7 cycles
 E2 =    -0.8183590788D+00 EUMP2 =    -0.22871428137128D+03
 E2 =    -0.8183590788D+00 EUMP2 =    -0.22871428137128D+03
 SCF Done:  E(RHF) =  -227.895922274     A.U. after    7 cycles
 E2 =    -0.8183591088D+00 EUMP2 =    -0.22871428138300D+03
 E2 =    -0.8183591088D+00 EUMP2 =    -0.22871428138300D+03
 SCF Done:  E(RHF) =  -227.895932349     A.U. after    7 cycles
 E2 =    -0.8183479293D+00 EUMP2 =    -0.22871428027803D+03
 E2 =    -0.8183479293D+00 EUMP2 =    -0.22871428027803D+03
 SCF Done:  E(RHF) =  -227.895910010     A.U. after    7 cycles
 E2 =    -0.8183701158D+00 EUMP2 =    -0.22871428012602D+03
 E2 =    -0.8183701158D+00 EUMP2 =    -0.22871428012602D+03
 E2 =    -0.8183609299D+00 EUMP2 =    -0.22871428021374D+03
 E2 =    -0.8183609299D+00 EUMP2 =    -0.22871428021374D+03
 E2 =    -0.8183612370D+00 EUMP2 =    -0.22871427967389D+03
 E2 =    -0.8183612370D+00 EUMP2 =    -0.22871427967389D+03
 E2 =    -0.8183738633D+00 EUMP2 =    -0.22871427913045D+03
 SCF Done:  E(RHF) =  -227.895920739     A.U. after    8 cycles
 E2 =    -0.8183597866D+00 EUMP2 =    -0.22871428052558D+03
 E2 =    -0.8183597866D+00 EUMP2 =    -0.22871428052558D+03
 SCF Done:  E(RHF) =  -227.895780623     A.U. after    8 cycles
 E2 =    -0.8184957535D+00 EUMP2 =    -0.22871427637598D+03
 E2 =    -0.8184957535D+00 EUMP2 =    -0.22871427637598D+03
 SCF Done:  E(RHF) =  -227.896053782     A.U. after    8 cycles
 E2 =    -0.8182225708D+00 EUMP2 =    -0.22871427635273D+03
 E2 =    -0.8182225708D+00 EUMP2 =    -0.22871427635273D+03
 SCF Done:  E(RHF) =  -227.895913227     A.U. after    8 cycles
 E2 =    -0.8183616712D+00 EUMP2 =    -0.22871427489857D+03
 E2 =    -0.8183616712D+00 EUMP2 =    -0.22871427489857D+03
 SCF Done:  E(RHF) =  -227.895916095     A.U. after    8 cycles
 E2 =    -0.8183584155D+00 EUMP2 =    -0.22871427451053D+03
 E2 =    -0.8183584155D+00 EUMP2 =    -0.22871427451053D+03
 SCF Done:  E(RHF) =  -227.895915614     A.U. after    8 cycles
 E2 =    -0.8183599646D+00 EUMP2 =    -0.22871427557880D+03
 E2 =    -0.8183599646D+00 EUMP2 =    -0.22871427557880D+03
 SCF Done:  E(RHF) =  -227.895911038     A.U. after    8 cycles
 E2 =    -0.8183608446D+00 EUMP2 =    -0.22871427188271D+03
 E2 =    -0.8183608446D+00 EUMP2 =    -0.22871427188270D+03
 SCF Done:  E(RHF) =  -227.895991482     A.U. after    7 cycles
 E2 =    -0.8182801404D+00 EUMP2 =    -0.22871427162229D+03
 E2 =    -0.8182801404D+00 EUMP2 =    -0.22871427162229D+03
 SCF Done:  E(RHF) =  -227.895829437     A.U. after    7 cycles
 E2 =    -0.8184421269D+00 EUMP2 =    -0.22871427156385D+03
 E2 =    -0.8184421269D+00 EUMP2 =    -0.22871427156385D+03
 SCF Done:  E(RHF) =  -227.895792350     A.U. after    8 cycles
 E2 =    -0.8184781159D+00 EUMP2 =    -0.22871427046570D+03
 E2 =    -0.8184781159D+00 EUMP2 =    -0.22871427046570D+03

 Alpha  occ. eigenvalues --  -20.61629 -20.54853 -11.39090 -11.25999  -1.45985
 Alpha  occ. eigenvalues --   -1.36505  -1.03332  -0.82944  -0.72222  -0.67183
 Alpha  occ. eigenvalues --   -0.65469  -0.60580  -0.57271  -0.56173  -0.48174
 Alpha  occ. eigenvalues --   -0.45473
 Alpha virt. eigenvalues --    0.01891   0.03725   0.03882   0.05537   0.07687
 Alpha virt. eigenvalues --    0.09856   0.10181   0.10615   0.11548   0.12409
 Alpha virt. eigenvalues --    0.13350   0.15618   0.16967   0.17860   0.18031

 Mulliken charges:
               1
     1  C    0.347880
     2  O   -0.514763
     3  O   -0.333948
     4  C   -0.695199
     5  H    0.220269
     6  H    0.322887
     7  H    0.326461
     8  H    0.326414
 Sum of Mulliken charges =  -0.00000

 Dipole moment (field-independent basis, Debye):
    X=             -3.3428    Y=              2.7272    Z=              0.0009  Tot=              4.3141
 Quadrupole moment (field-independent basis, Debye-Ang):
   XX=            -25.5479   YY=            -23.6864   ZZ=            -23.5099
   XY=              0.3396   XZ=              0.0016   YZ=             -0.0015

  Exact polarizability:      36.414      -1.671      39.447      -0.002       0.002      26.527
 Approx polarizability:      27.356      -2.194      32.127      -0.003       0.004      24.086
