 Gaussian 16, Revision C.01,
 Gaussian 16:  EM64L-G16RevC.01  3-Jul-2019

 ----------------------------------------------
 # MP2/aug-cc-pVDZ opt freq=(vibrot,anharmonic)
 ----------------------------------------------

 ----
 blah
 ----
 Symbolic Z-matrix:
 Charge =  0 Multiplicity = 1

 SCF Done:  E(RHF) =  -208.012184812     A.U. after   13 cycles
 E2 =    -0.6552994261D+00 EUMP2 =    -0.20866748423845D+03
 SCF Done:  E(RHF) =  -208.010353107     A.U. after   11 cycles
 E2 =    -0.6592158328D+00 EUMP2 =    -0.20866956893934D+03
 SCF Done:  E(RHF) =  -208.010504462     A.U. after   10 cycles
 E2 =    -0.6591009609D+00 EUMP2 =    -0.20866960542337D+03
 SCF Done:  E(RHF) =  -208.010525443     A.U. after   10 cycles
 E2 =    -0.6590811654D+00 EUMP2 =    -0.20866960660818D+03
 SCF Done:  E(RHF) =  -208.010524396     A.U. after    9 cycles
 E2 =    -0.6590839103D+00 EUMP2 =    -0.20866960830610D+03
 Optimization completed.
    -- Stationary point found.
 Normal termination of Gaussian 16 at Sat Mar 29 13:44:02 2025.

 ----------------------------------------------------------------------
 #N Geom=AllCheck Guess=TCheck SCRF=Check GenChk RMP2(FC)/Aug-CC-pVDZ F
 req
 ----------------------------------------------------------------------

 Structure from the checkpoint file:  "/scr/Gau-989.chk"
 ----
 blah
 ----
 Charge =  0 Multiplicity = 1

                         Standard orientation:
 ---------------------------------------------------------------------
 Center     Atomic      Atomic             Coordinates (Angstroms)
 Number     Number       Type             X           Y           Z
 ---------------------------------------------------------------------
      1          6           0        0.075528    0.150232   -0.001521
      2          8           0        0.423604    1.333137    0.000050
      3          7           0        0.991787   -0.875273   -0.000109
      4          6           0       -1.377903   -0.291910    0.000035
      5          1           0       -2.015283    0.598817   -0.043349
      6          1           0       -1.603060   -0.860088    0.916471
      7          1           0       -1.587531   -0.938815   -0.866411
      8          1           0        0.712482   -1.845282   -0.002238
      9          1           0        1.976296   -0.642749    0.004809
 ---------------------------------------------------------------------

 SCF Done:  E(RHF) =  -208.010524396     A.U. after    1 cycles
 E2 =    -0.6590839117D+00 EUMP2 =    -0.20866960830746D+03
 E2 =    -0.6590839117D+00 EUMP2 =    -0.20866960830746D+03
 ******    2 imaginary frequencies (negative Signs) ******
    2 imaginary frequencies ignored.
 SCF Done:  E(RHF) =  -208.010522921     A.U. after    8 cycles
 E2 =    -0.6590851772D+00 EUMP2 =    -0.20866960809797D+03
 E2 =    -0.6590851772D+00 EUMP2 =    -0.20866960809797D+03
 SCF Done:  E(RHF) =  -208.010523490     A.U. after    8 cycles
 E2 =    -0.6590850986D+00 EUMP2 =    -0.20866960858818D+03
 E2 =    -0.6590850986D+00 EUMP2 =    -0.20866960858818D+03
 SCF Done:  E(RHF) =  -208.010523503     A.U. after    9 cycles
 E2 =    -0.6590849314D+00 EUMP2 =    -0.20866960843480D+03
 E2 =    -0.6590849314D+00 EUMP2 =    -0.20866960843480D+03
 SCF Done:  E(RHF) =  -208.010523664     A.U. after    9 cycles
 E2 =    -0.6590845296D+00 EUMP2 =    -0.20866960819333D+03
 E2 =    -0.6590845296D+00 EUMP2 =    -0.20866960819333D+03
 E2 =    -0.6590980040D+00 EUMP2 =    -0.20866960713700D+03
 E2 =    -0.6590980040D+00 EUMP2 =    -0.20866960713700D+03
 E2 =    -0.6590706298D+00 EUMP2 =    -0.20866960716774D+03
 E2 =    -0.6590706298D+00 EUMP2 =    -0.20866960716774D+03
 E2 =    -0.6590855042D+00 EUMP2 =    -0.20866960648378D+03
 SCF Done:  E(RHF) =  -208.010704342     A.U. after    9 cycles
 E2 =    -0.6588393247D+00 EUMP2 =    -0.20866954366654D+03
 E2 =    -0.6588393247D+00 EUMP2 =    -0.20866954366654D+03
 SCF Done:  E(RHF) =  -208.010215545     A.U. after    9 cycles
 E2 =    -0.6593296424D+00 EUMP2 =    -0.20866954518772D+03
 E2 =    -0.6593296424D+00 EUMP2 =    -0.20866954518772D+03
 SCF Done:  E(RHF) =  -208.010455996     A.U. after    9 cycles
 E2 =    -0.6590847558D+00 EUMP2 =    -0.20866954075178D+03
 E2 =    -0.6590847558D+00 EUMP2 =    -0.20866954075178D+03
 SCF Done:  E(RHF) =  -208.010458854     A.U. after    8 cycles
 E2 =    -0.6590819639D+00 EUMP2 =    -0.20866954081745D+03
 E2 =    -0.6590819639D+00 EUMP2 =    -0.20866954081745D+03
 SCF Done:  E(RHF) =  -208.010519170     A.U. after    9 cycles
 E2 =    -0.6590191143D+00 EUMP2 =    -0.20866953828406D+03
 E2 =    -0.6590191143D+00 EUMP2 =    -0.20866953828406D+03
 SCF Done:  E(RHF) =  -208.010391033     A.U. after    9 cycles
 E2 =    -0.6591479565D+00 EUMP2 =    -0.20866953898897D+03
 E2 =    -0.6591479565D+00 EUMP2 =    -0.20866953898897D+03
 SCF Done:  E(RHF) =  -208.010845432     A.U. after   10 cycles
 E2 =    -0.6586727461D+00 EUMP2 =    -0.20866951817853D+03
 E2 =    -0.6586727461D+00 EUMP2 =    -0.20866951817853D+03
 SCF Done:  E(RHF) =  -208.010025054     A.U. after   10 cycles
 E2 =    -0.6594970762D+00 EUMP2 =    -0.20866952213044D+03
 E2 =    -0.6594970762D+00 EUMP2 =    -0.20866952213044D+03
 SCF Done:  E(RHF) =  -208.010399015     A.U. after    9 cycles
 E2 =    -0.6591140532D+00 EUMP2 =    -0.20866951306774D+03
 E2 =    -0.6591140532D+00 EUMP2 =    -0.20866951306774D+03
 SCF Done:  E(RHF) =  -208.010457400     A.U. after    9 cycles
 E2 =    -0.6590543461D+00 EUMP2 =    -0.20866951174634D+03
 E2 =    -0.6590543461D+00 EUMP2 =    -0.20866951174634D+03

 Alpha  occ. eigenvalues --  -20.53111 -15.59543 -11.36687 -11.25124  -1.37565
 Alpha  occ. eigenvalues --   -1.21055  -1.00454  -0.79920  -0.72364  -0.66258
 Alpha  occ. eigenvalues --   -0.61305  -0.58438  -0.55992  -0.52257  -0.42529
 Alpha  occ. eigenvalues --   -0.41327
 Alpha virt. eigenvalues --    0.02660   0.04454   0.05333   0.05645   0.07540
 Alpha virt. eigenvalues --    0.09919   0.12625   0.12661   0.14358   0.15272
 Alpha virt. eigenvalues --    0.15816   0.16754   0.17373   0.18109   0.20579

 Mulliken charges:
               1
     1  C    0.529657
     2  O   -0.588068
     3  N   -0.089797
     4  C    0.318593
     5  H   -0.069872
     6  H    0.004209
     7  H   -0.009028
     8  H   -0.058097
     9  H   -0.037598
 Sum of Mulliken charges =  -0.00000

 Dipole moment (field-independent basis, Debye):
    X=             -0.3634    Y=             -3.8268    Z=              0.0063  Tot=              3.8440
 Quadrupole moment (field-independent basis, Debye-Ang):
   XX=            -21.5479   YY=            -26.7691   ZZ=            -25.9494
   XY=             -2.4140   XZ=              0.0126   YZ=             -0.0035

  Exact polarizability:      42.892      -0.737      46.019      -0.026      -0.009      30.807
 Approx polarizability:      31.334       0.353      37.082      -0.018      -0.004      27.754

                      1                      2                      3
                      A                      A                      A
 Frequencies --    -72.6836               -34.1059               413.3789
 Red. masses --      1.2902                 1.0411                 2.2861
 Frc consts  --      0.0040                 0.0007                 0.2302
 IR Inten    --    153.1740                41.0432                 3.0012

                      4                      5                      6
                      A                      A                      A
 Frequencies --    528.0530               544.5003               631.1455
 Red. masses --      1.3232                 3.4211                 1.6241
 Frc consts  --      0.2174                 0.5976                 0.3812
 IR Inten    --      6.2534                13.4969                 4.2059

                      7                      8                      9
                      A                      A                      A
 Frequencies --    858.5953               974.1200              1045.5256
 Red. masses --      2.8518                 1.5583                 1.7590
 Frc consts  --      1.2386                 0.8712                 1.1329
 IR Inten    --      1.0209                13.0190                 0.8101

                     10                     11                     12
                      A                      A                      A
 Frequencies --   1109.5551              1333.9030              1404.0633
 Red. masses --      1.6913                 1.6257                 2.1205
 Frc consts  --      1.2268                 1.7043                 2.4629
 IR Inten    --      1.0239                62.9543               114.3666

                     13                     14                     15
                      A                      A                      A
 Frequencies --   1463.9734              1475.6980              1624.3226
 Red. masses --      1.0676                 1.0443                 1.3033
 Frc consts  --      1.3481                 1.3399                 2.0260
 IR Inten    --     12.2930                 8.2594                89.3154

                     16                     17                     18
                      A                      A                      A
 Frequencies --   1749.5487              3074.5562              3160.9131
 Red. masses --      7.5498                 1.0375                 1.1005
 Frc consts  --     13.6157                 5.7781                 6.4785
 IR Inten    --    341.6867                 7.0954                 7.2828

                     19                     20                     21
                      A                      A                      A
 Frequencies --   3210.7279              3611.6262              3766.9676
 Red. masses --      1.1019                 1.0461                 1.1056
 Frc consts  --      6.6928                 8.0391                 9.2432
 IR Inten    --      3.9798                45.4095                48.3013

 - Thermochemistry -
 -------------------
 Temperature   298.150 Kelvin.  Pressure   1.00000 Atm.
 Atom     1 has atomic number  6 and mass  12.00000

 Molecular mass:    59.03711 amu.
 Principal axes and moments of inertia in atomic units:
                           1         2         3
     Eigenvalues --   169.94755 195.50450 353.98905
           X            0.99435  -0.10615   0.00002
           Y            0.10615   0.99435  -0.00001
           Z           -0.00002   0.00001   1.00000
 This molecule is an asymmetric top.
 Rotational symmetry number  1.
 Rotational temperatures (Kelvin)      0.50965     0.44303     0.24468
 Rotational constants (GHZ):          10.61940     9.23120     5.09830
    2 imaginary frequencies ignored.
 Zero-point vibrational energy     191289.9 (Joules/Mol)
                                   45.71938 (Kcal/Mol)
 Warning -- explicit consideration of   3 degrees of freedom as
           vibrations may cause significant error
 Vibrational temperatures:    594.76   759.75   783.41   908.08  1235.33
          (Kelvin)           1401.54  1504.28  1596.40  1919.19  2020.13
                             2106.33  2123.20  2337.04  2517.21  4423.60
                             4547.85  4619.52  5196.32  5419.83

 Zero-point correction=                           0.072858 (Hartree/Particle)
 Thermal correction to Energy=                    0.076720
 Thermal correction to Enthalpy=                  0.077664
 Thermal correction to Gibbs Free Energy=         0.046746
 Sum of electronic and zero-point Energies=           -208.596750
 Sum of electronic and thermal Energies=              -208.592888
 Sum of electronic and thermal Enthalpies=            -208.591944
 Sum of electronic and thermal Free Energies=         -208.622862

                     E (Thermal)             CV                S
                      KCal/Mol        Cal/Mol-Kelvin    Cal/Mol-Kelvin
 Total                   48.143             12.758             65.073
 Electronic               0.000              0.000              0.000
 Translational            0.889              2.981             38.147
 Rotational               0.889              2.981             23.979
 Vibrational             46.365              6.797              2.946
 Vibration     1          0.777              1.441              0.915
 Vibration     2          0.883              1.188              0.592
 Vibration     3          0.900              1.152              0.556

 WARNING:      2 modes have imaginary frequencies.
                           ! Non-Optimized Parameters !
 Normal termination of Gaussian 16 at Sat Mar 29 14:29:30 2025.
