 Gaussian 16, Revision C.01,
 Gaussian 16:  EM64L-G16RevC.01  3-Jul-2019

 ----------------------------------------------
 # MP2/aug-cc-pVDZ opt freq=(vibrot,anharmonic)
 ----------------------------------------------

 ----
 blah
 ----
 Symbolic Z-matrix:
 Charge =  0 Multiplicity = 1

 SCF Done:  E(RHF) =  -208.009457106     A.U. after   13 cycles
 E2 =    -0.6590200466D+00 EUMP2 =    -0.20866847715245D+03
 SCF Done:  E(RHF) =  -208.010055982     A.U. after   12 cycles
 E2 =    -0.6593207870D+00 EUMP2 =    -0.20866937676926D+03
 SCF Done:  E(RHF) =  -208.009840558     A.U. after   12 cycles
 E2 =    -0.6593880793D+00 EUMP2 =    -0.20866922863690D+03
 SCF Done:  E(RHF) =  -208.010493889     A.U. after   10 cycles
 E2 =    -0.6591614448D+00 EUMP2 =    -0.20866965533357D+03
 SCF Done:  E(RHF) =  -208.010509934     A.U. after    9 cycles
 E2 =    -0.6591473616D+00 EUMP2 =    -0.20866965729560D+03
 Optimization completed.
    -- Stationary point found.
 Normal termination of Gaussian 16 at Mon Apr  7 13:23:19 2025.

 ----------------------------------------------------------------------
 #N Geom=AllCheck Guess=TCheck SCRF=Check GenChk RMP2(FC)/Aug-CC-pVDZ F
 req
 ----------------------------------------------------------------------

 Structure from the checkpoint file:  "/scr/Gau-27945.chk"
 ----
 blah
 ----
 Charge =  0 Multiplicity = 1

                         Standard orientation:
 ---------------------------------------------------------------------
 Center     Atomic      Atomic             Coordinates (Angstroms)
 Number     Number       Type             X           Y           Z
 ---------------------------------------------------------------------
      1          6           0        0.074168    0.147859   -0.010719
      2          8           0        0.396597    1.337923    0.000245
      3          7           0        1.010713   -0.858510   -0.001829
      4          6           0       -1.372547   -0.314948   -0.000090
      5          1           0       -1.993236    0.463238   -0.461150
      6          1           0       -1.695424   -0.447521    1.044667
      7          1           0       -1.510681   -1.268619   -0.531892
      8          1           0        0.752535   -1.834106   -0.013534
      9          1           0        1.989315   -0.604279    0.037617
 ---------------------------------------------------------------------

 SCF Done:  E(RHF) =  -208.010509934     A.U. after    1 cycles
 E2 =    -0.6591473621D+00 EUMP2 =    -0.20866965729602D+03
 E2 =    -0.6591473621D+00 EUMP2 =    -0.20866965729602D+03
 SCF Done:  E(RHF) =  -208.010510689     A.U. after    9 cycles
 E2 =    -0.6591472573D+00 EUMP2 =    -0.20866965794672D+03
 E2 =    -0.6591472573D+00 EUMP2 =    -0.20866965794672D+03
 SCF Done:  E(RHF) =  -208.010506944     A.U. after    9 cycles
 E2 =    -0.6591496677D+00 EUMP2 =    -0.20866965661142D+03
 E2 =    -0.6591496677D+00 EUMP2 =    -0.20866965661142D+03
 SCF Done:  E(RHF) =  -208.010509492     A.U. after    8 cycles
 E2 =    -0.6591486605D+00 EUMP2 =    -0.20866965815274D+03
 E2 =    -0.6591486605D+00 EUMP2 =    -0.20866965815274D+03
 SCF Done:  E(RHF) =  -208.010508478     A.U. after    8 cycles
 E2 =    -0.6591479279D+00 EUMP2 =    -0.20866965640638D+03
 E2 =    -0.6591479279D+00 EUMP2 =    -0.20866965640638D+03
 E2 =    -0.6591319206D+00 EUMP2 =    -0.20866965625160D+03
 E2 =    -0.6591319206D+00 EUMP2 =    -0.20866965625160D+03
 E2 =    -0.6591636303D+00 EUMP2 =    -0.20866965594605D+03
 E2 =    -0.6591636303D+00 EUMP2 =    -0.20866965594605D+03
 E2 =    -0.6591462174D+00 EUMP2 =    -0.20866965544854D+03
 SCF Done:  E(RHF) =  -208.010197415     A.U. after    9 cycles
 E2 =    -0.6593963729D+00 EUMP2 =    -0.20866959378793D+03
 E2 =    -0.6593963729D+00 EUMP2 =    -0.20866959378793D+03
 SCF Done:  E(RHF) =  -208.010693356     A.U. after    9 cycles
 E2 =    -0.6588995255D+00 EUMP2 =    -0.20866959288163D+03
 E2 =    -0.6588995255D+00 EUMP2 =    -0.20866959288163D+03
 SCF Done:  E(RHF) =  -208.010454380     A.U. after    9 cycles
 E2 =    -0.6591354012D+00 EUMP2 =    -0.20866958978083D+03
 E2 =    -0.6591354012D+00 EUMP2 =    -0.20866958978083D+03
 SCF Done:  E(RHF) =  -208.010431132     A.U. after    9 cycles
 E2 =    -0.6591582318D+00 EUMP2 =    -0.20866958936358D+03
 E2 =    -0.6591582318D+00 EUMP2 =    -0.20866958936358D+03
 SCF Done:  E(RHF) =  -208.010389044     A.U. after    9 cycles
 E2 =    -0.6591999160D+00 EUMP2 =    -0.20866958895974D+03
 E2 =    -0.6591999160D+00 EUMP2 =    -0.20866958895974D+03
 SCF Done:  E(RHF) =  -208.010492938     A.U. after    9 cycles
 E2 =    -0.6590940131D+00 EUMP2 =    -0.20866958695149D+03
 E2 =    -0.6590940131D+00 EUMP2 =    -0.20866958695149D+03
 SCF Done:  E(RHF) =  -208.010009349     A.U. after   10 cycles
 E2 =    -0.6595612591D+00 EUMP2 =    -0.20866957060795D+03
 E2 =    -0.6595612591D+00 EUMP2 =    -0.20866957060795D+03
 SCF Done:  E(RHF) =  -208.010832266     A.U. after   10 cycles
 E2 =    -0.6587354947D+00 EUMP2 =    -0.20866956776093D+03
 E2 =    -0.6587354947D+00 EUMP2 =    -0.20866956776093D+03
 SCF Done:  E(RHF) =  -208.010452215     A.U. after    9 cycles
 E2 =    -0.6591089720D+00 EUMP2 =    -0.20866956118667D+03
 E2 =    -0.6591089720D+00 EUMP2 =    -0.20866956118667D+03
 SCF Done:  E(RHF) =  -208.010375195     A.U. after    9 cycles
 E2 =    -0.6591863654D+00 EUMP2 =    -0.20866956156082D+03
 E2 =    -0.6591863654D+00 EUMP2 =    -0.20866956156082D+03

 Alpha  occ. eigenvalues --  -20.52978 -15.59702 -11.36706 -11.25158  -1.37537
 Alpha  occ. eigenvalues --   -1.21054  -1.00475  -0.79921  -0.72395  -0.66301
 Alpha  occ. eigenvalues --   -0.61248  -0.58418  -0.56055  -0.52213  -0.42471
 Alpha  occ. eigenvalues --   -0.41329
 Alpha virt. eigenvalues --    0.02686   0.04438   0.05324   0.05764   0.07544
 Alpha virt. eigenvalues --    0.10031   0.12651   0.12689   0.14261   0.15134
 Alpha virt. eigenvalues --    0.16373   0.16498   0.17324   0.18270   0.20050

 Mulliken charges:
               1
     1  C    0.537395
     2  O   -0.610367
     3  N   -0.077174
     4  C    0.317345
     5  H   -0.033132
     6  H    0.033395
     7  H   -0.086122
     8  H   -0.024191
     9  H   -0.057149
 Sum of Mulliken charges =  -0.00000

 Dipole moment (field-independent basis, Debye):
    X=             -0.2932    Y=             -3.8457    Z=              0.0571  Tot=              3.8573
 Quadrupole moment (field-independent basis, Debye-Ang):
   XX=            -21.4694   YY=            -26.8443   ZZ=            -25.9269
   XY=             -2.3622   XZ=              0.1057   YZ=             -0.0348

  Exact polarizability:      43.010      -1.051      46.104      -0.210      -0.058      30.825
 Approx polarizability:      31.385       0.052      37.093      -0.141      -0.033      27.763

                      1                      2                      3
                      A                      A                      A
 Frequencies --     47.4610                48.7715               420.7144
 Red. masses --      1.0720                 1.2426                 2.3067
 Frc consts  --      0.0014                 0.0017                 0.2406
 IR Inten    --    120.0598                73.0012                 3.2941

                      4                      5                      6
                      A                      A                      A
 Frequencies --    519.9244               542.8713               645.0729
 Red. masses --      1.4593                 2.8676                 1.6002
 Frc consts  --      0.2324                 0.4979                 0.3923
 IR Inten    --      7.1857                13.4963                 5.6363

                      7                      8                      9
                      A                      A                      A
 Frequencies --    861.1592               977.7331              1042.5466
 Red. masses --      2.9911                 1.5130                 1.7467
 Frc consts  --      1.3069                 0.8522                 1.1186
 IR Inten    --      1.3924                12.1549                 1.6099

                     10                     11                     12
                      A                      A                      A
 Frequencies --   1109.9791              1337.1902              1400.5286
 Red. masses --      1.6950                 1.6644                 1.8606
 Frc consts  --      1.2304                 1.7534                 2.1502
 IR Inten    --      0.6128                64.9326               110.2554

                     13                     14                     15
                      A                      A                      A
 Frequencies --   1462.5549              1479.6382              1623.3269
 Red. masses --      1.0663                 1.1010                 1.3020
 Frc consts  --      1.3439                 1.4202                 2.0215
 IR Inten    --      9.6648                10.0533                89.8950

                     16                     17                     18
                      A                      A                      A
 Frequencies --   1748.7836              3076.4888              3165.6119
 Red. masses --      7.7439                 1.0370                 1.1009
 Frc consts  --     13.9535                 5.7825                 6.4997
 IR Inten    --    348.7314                 7.0665                 9.5911

                     19                     20                     21
                      A                      A                      A
 Frequencies --   3203.1003              3610.7585              3767.3735
 Red. masses --      1.1022                 1.0462                 1.1054
 Frc consts  --      6.6628                 8.0365                 9.2435
 IR Inten    --      4.7300                45.6356                47.9325

 - Thermochemistry -
 -------------------
 Temperature   298.150 Kelvin.  Pressure   1.00000 Atm.
 Atom     1 has atomic number  6 and mass  12.00000

 Molecular mass:    59.03711 amu.
 Principal axes and moments of inertia in atomic units:
                           1         2         3
     Eigenvalues --   169.68982 195.75270 353.99903
           X            0.99577  -0.09187   0.00025
           Y            0.09187   0.99577  -0.00020
           Z           -0.00023   0.00023   1.00000
 This molecule is an asymmetric top.
 Rotational symmetry number  1.
 Rotational temperatures (Kelvin)      0.51042     0.44247     0.24467
 Rotational constants (GHZ):          10.63553     9.21950     5.09815
 Zero-point vibrational energy     191950.3 (Joules/Mol)
                                   45.87723 (Kcal/Mol)
 Warning -- explicit consideration of   5 degrees of freedom as
           vibrations may cause significant error
 Vibrational temperatures:     68.29    70.17   605.31   748.06   781.07
          (Kelvin)            928.12  1239.02  1406.74  1499.99  1597.01
                             1923.92  2015.05  2104.29  2128.87  2335.61
                             2516.11  4426.38  4554.61  4608.55  5195.08
                             5420.41

 Zero-point correction=                           0.073110 (Hartree/Particle)
 Thermal correction to Energy=                    0.078641
 Thermal correction to Enthalpy=                  0.079586
 Thermal correction to Gibbs Free Energy=         0.044030
 Sum of electronic and zero-point Energies=           -208.596547
 Sum of electronic and thermal Energies=              -208.591016
 Sum of electronic and thermal Enthalpies=            -208.590072
 Sum of electronic and thermal Free Energies=         -208.625627

                     E (Thermal)             CV                S
                      KCal/Mol        Cal/Mol-Kelvin    Cal/Mol-Kelvin
 Total                   49.348             16.686             74.833
 Electronic               0.000              0.000              0.000
 Translational            0.889              2.981             38.147
 Rotational               0.889              2.981             23.979
 Vibrational             47.571             10.724             12.707
 Vibration     1          0.595              1.979              4.920
 Vibration     2          0.595              1.978              4.867
 Vibration     3          0.783              1.425              0.890
 Vibration     4          0.875              1.206              0.610
 Vibration     5          0.898              1.155              0.559

 ## DEPERTURBED TRANSITIONS MOMENTS ##

 Electric dipole : Fundamental Bands
 ------------------------------------------------------------------------

 ## AFTER VARIATIONAL CORRECTION

 Electric dipole : Fundamental Bands
 ------------------------------------------------------------------------

                           ! Non-Optimized Parameters !
 Normal termination of Gaussian 16 at Mon Apr  7 14:09:02 2025.
