 Gaussian 16, Revision C.01,
 Gaussian 16:  EM64L-G16RevC.01  3-Jul-2019

 ----------------------------------------------
 # MP2/aug-cc-pVDZ opt freq=(vibrot,anharmonic)
 ----------------------------------------------

 ----
 blah
 ----
 Symbolic Z-matrix:
 Charge =  0 Multiplicity = 1

 SCF Done:  E(RHF) =  -247.030486429     A.U. after   13 cycles
 E2 =    -0.8068437568D+00 EUMP2 =    -0.24783733018589D+03
 SCF Done:  E(RHF) =  -247.034988064     A.U. after   12 cycles
 E2 =    -0.8076707066D+00 EUMP2 =    -0.24784265877017D+03
 SCF Done:  E(RHF) =  -247.035038548     A.U. after   11 cycles
 E2 =    -0.8084662328D+00 EUMP2 =    -0.24784350478058D+03
 SCF Done:  E(RHF) =  -247.035298161     A.U. after    9 cycles
 E2 =    -0.8082393837D+00 EUMP2 =    -0.24784353754491D+03
 SCF Done:  E(RHF) =  -247.035315820     A.U. after    8 cycles
 E2 =    -0.8082226169D+00 EUMP2 =    -0.24784353843741D+03
 SCF Done:  E(RHF) =  -247.035316859     A.U. after    8 cycles
 E2 =    -0.8082218307D+00 EUMP2 =    -0.24784353869015D+03
 Optimization completed.
    -- Stationary point found.
 Normal termination of Gaussian 16 at Sat Mar 29 14:31:35 2025.

 ----------------------------------------------------------------------
 #N Geom=AllCheck Guess=TCheck SCRF=Check GenChk RMP2(FC)/Aug-CC-pVDZ F
 req
 ----------------------------------------------------------------------

 Structure from the checkpoint file:  "/scr/Gau-50251.chk"
 ----
 blah
 ----
 Charge =  0 Multiplicity = 1

                         Standard orientation:
 ---------------------------------------------------------------------
 Center     Atomic      Atomic             Coordinates (Angstroms)
 Number     Number       Type             X           Y           Z
 ---------------------------------------------------------------------
      1          6           0        0.616341   -0.161449    0.000323
      2          8           0        1.591643   -0.924004   -0.000083
      3          7           0       -0.664520   -0.658439   -0.000021
      4          6           0        0.777989    1.350034    0.000156
      5          1           0        1.852593    1.566138    0.000087
      6          1           0        0.315904    1.800997    0.892602
      7          1           0        0.315829    1.800860   -0.892326
      8          6           0       -1.915614    0.084601   -0.000226
      9          1           0       -0.701894   -1.672907   -0.000235
     10          1           0       -1.707245    1.160381   -0.000123
     11          1           0       -2.514668   -0.146796    0.894925
     12          1           0       -2.514324   -0.146681   -0.895637
 ---------------------------------------------------------------------

 SCF Done:  E(RHF) =  -247.035316859     A.U. after    1 cycles
 E2 =    -0.8082218322D+00 EUMP2 =    -0.24784353869170D+03
 E2 =    -0.8082218322D+00 EUMP2 =    -0.24784353869170D+03
 ******    1 imaginary frequencies (negative Signs) ******
    1 imaginary frequencies ignored.
 SCF Done:  E(RHF) =  -247.035316351     A.U. after    8 cycles
 E2 =    -0.8082224284D+00 EUMP2 =    -0.24784353877914D+03
 E2 =    -0.8082224284D+00 EUMP2 =    -0.24784353877914D+03
 SCF Done:  E(RHF) =  -247.035316381     A.U. after    8 cycles
 E2 =    -0.8082224113D+00 EUMP2 =    -0.24784353879258D+03
 E2 =    -0.8082224113D+00 EUMP2 =    -0.24784353879258D+03
 SCF Done:  E(RHF) =  -247.035316447     A.U. after    7 cycles
 E2 =    -0.8082221735D+00 EUMP2 =    -0.24784353862036D+03
 E2 =    -0.8082221735D+00 EUMP2 =    -0.24784353862036D+03
 E2 =    -0.8082221824D+00 EUMP2 =    -0.24784353863591D+03
 E2 =    -0.8082221824D+00 EUMP2 =    -0.24784353863591D+03
 E2 =    -0.8082225106D+00 EUMP2 =    -0.24784353841635D+03
 E2 =    -0.8082225106D+00 EUMP2 =    -0.24784353841635D+03
 E2 =    -0.8082225313D+00 EUMP2 =    -0.24784353844113D+03
 E2 =    -0.8082225313D+00 EUMP2 =    -0.24784353844113D+03
 SCF Done:  E(RHF) =  -247.035250903     A.U. after    8 cycles
 E2 =    -0.8082213573D+00 EUMP2 =    -0.24784347226023D+03
 E2 =    -0.8082213573D+00 EUMP2 =    -0.24784347226023D+03
 SCF Done:  E(RHF) =  -247.035250936     A.U. after    8 cycles
 E2 =    -0.8082213030D+00 EUMP2 =    -0.24784347223875D+03
 E2 =    -0.8082213030D+00 EUMP2 =    -0.24784347223875D+03
 SCF Done:  E(RHF) =  -247.035249950     A.U. after    8 cycles
 E2 =    -0.8082213210D+00 EUMP2 =    -0.24784347127145D+03
 E2 =    -0.8082213210D+00 EUMP2 =    -0.24784347127145D+03
 SCF Done:  E(RHF) =  -247.035249955     A.U. after    7 cycles
 E2 =    -0.8082214407D+00 EUMP2 =    -0.24784347139568D+03
 E2 =    -0.8082214407D+00 EUMP2 =    -0.24784347139568D+03
 SCF Done:  E(RHF) =  -247.035126138     A.U. after    9 cycles
 E2 =    -0.8083444892D+00 EUMP2 =    -0.24784347062737D+03
 E2 =    -0.8083444892D+00 EUMP2 =    -0.24784347062737D+03
 SCF Done:  E(RHF) =  -247.035369424     A.U. after    9 cycles
 E2 =    -0.8080984555D+00 EUMP2 =    -0.24784346787982D+03
 E2 =    -0.8080984555D+00 EUMP2 =    -0.24784346787982D+03
 SCF Done:  E(RHF) =  -247.035239555     A.U. after    9 cycles
 E2 =    -0.8082294637D+00 EUMP2 =    -0.24784346901836D+03
 E2 =    -0.8082294637D+00 EUMP2 =    -0.24784346901836D+03
 SCF Done:  E(RHF) =  -247.035255586     A.U. after    9 cycles
 E2 =    -0.8082135577D+00 EUMP2 =    -0.24784346914379D+03
 E2 =    -0.8082135577D+00 EUMP2 =    -0.24784346914379D+03
 SCF Done:  E(RHF) =  -247.035542597     A.U. after    9 cycles
 E2 =    -0.8079028450D+00 EUMP2 =    -0.24784344544149D+03
 E2 =    -0.8079028450D+00 EUMP2 =    -0.24784344544149D+03
 SCF Done:  E(RHF) =  -247.034912461     A.U. after    9 cycles
 E2 =    -0.8085425071D+00 EUMP2 =    -0.24784345496843D+03
 E2 =    -0.8085425071D+00 EUMP2 =    -0.24784345496843D+03

 Alpha  occ. eigenvalues --  -20.52287 -15.59376 -11.36087 -11.28692 -11.24841
 Alpha  occ. eigenvalues --   -1.36872  -1.22606  -1.00592  -0.95520  -0.77972
 Alpha  occ. eigenvalues --   -0.67383  -0.66507  -0.63505  -0.58623  -0.57623
 Alpha  occ. eigenvalues --   -0.55729  -0.55294  -0.50863  -0.41831  -0.38589
 Alpha virt. eigenvalues --    0.02832   0.04319   0.04564   0.05184   0.06761
 Alpha virt. eigenvalues --    0.07119   0.08376   0.09853   0.12436   0.12974
 Alpha virt. eigenvalues --    0.14008   0.14906   0.15283   0.15542   0.16008

 Mulliken charges:
               1
     1  C    0.528649
     2  O   -0.626488
     3  N   -0.285928
     4  C    0.221190
     5  H   -0.187293
     6  H    0.066155
     7  H    0.066097
     8  C    0.766072
     9  H   -0.113123
    10  H   -0.231971
    11  H   -0.101694
    12  H   -0.101666
 Sum of Mulliken charges =  -0.00000

 Dipole moment (field-independent basis, Debye):
    X=             -3.7702    Y=              1.7637    Z=             -0.0001  Tot=              4.1623
 Quadrupole moment (field-independent basis, Debye-Ang):
   XX=            -34.5416   YY=            -30.7549   ZZ=            -32.0916
   XY=              4.7960   XZ=              0.0013   YZ=              0.0003

  Exact polarizability:      64.953      -1.303      52.370       0.001       0.002      39.705
 Approx polarizability:      47.181      -2.084      42.211      -0.001       0.002      37.028

 ******    1 imaginary frequencies (negative Signs) ******

                      1                      2                      3
                      A                      A                      A
 Frequencies --   -120.4223               105.9844               197.2114
 Red. masses --      1.2292                 2.4112                 1.0783
 Frc consts  --      0.0105                 0.0160                 0.0247
 IR Inten    --      0.6155                 1.0026                 0.0930

                      4                      5                      6
                      A                      A                      A
 Frequencies --    306.9646               487.8519               526.2691
 Red. masses --      2.7814                 3.0078                 1.3906
 Frc consts  --      0.1544                 0.4218                 0.2269
 IR Inten    --      1.4345                 8.3282                29.3791

                      7                      8                      9
                      A                      A                      A
 Frequencies --    564.4395               614.9170               813.4499
 Red. masses --      4.5189                 1.6938                 3.7742
 Frc consts  --      0.8482                 0.3774                 1.4714
 IR Inten    --     12.7933                66.2670                 3.7358

                     10                     11                     12
                      A                      A                      A
 Frequencies --    985.4104              1037.9233              1097.7115
 Red. masses --      1.4527                 1.7410                 1.6059
 Frc consts  --      0.8311                 1.1050                 1.1401
 IR Inten    --     35.9154                 1.2429                12.2953

                     13                     14                     15
                      A                      A                      A
 Frequencies --   1146.7610              1182.8702              1339.3206
 Red. masses --      1.2822                 2.5102                 1.3838
 Frc consts  --      0.9935                 2.0693                 1.4625
 IR Inten    --      0.6092                16.3701                61.7340

                     16                     17                     18
                      A                      A                      A
 Frequencies --   1398.7021              1449.7480              1468.7194
 Red. masses --      1.6603                 1.1217                 1.2603
 Frc consts  --      1.9138                 1.3890                 1.6018
 IR Inten    --    106.4073                 6.3180                31.7439

                     19                     20                     21
                      A                      A                      A
 Frequencies --   1472.4248              1487.7068              1493.8533
 Red. masses --      1.0420                 1.5928                 1.0410
 Frc consts  --      1.3311                 2.0770                 1.3688
 IR Inten    --     13.0043                29.1993                 0.2914

                     22                     23                     24
                      A                      A                      A
 Frequencies --   1535.2197              1727.7132              3065.6136
 Red. masses --      1.3501                 6.5978                 1.0375
 Frc consts  --      1.8748                11.6036                 5.7446
 IR Inten    --     49.9436               404.5673                57.4147

                     25                     26                     27
                      A                      A                      A
 Frequencies --   3071.3166              3135.4437              3157.1648
 Red. masses --      1.0381                 1.1051                 1.1005
 Frc consts  --      5.7696                 6.4010                 6.4628
 IR Inten    --      8.1938                22.6012                 7.3916

                     28                     29                     30
                      A                      A                      A
 Frequencies --   3205.4443              3209.4403              3618.1485
 Red. masses --      1.0986                 1.0999                 1.0764
 Frc consts  --      6.6509                 6.6755                 8.3022
 IR Inten    --     10.8325                 2.2318                33.9478

 - Thermochemistry -
 -------------------
 Temperature   298.150 Kelvin.  Pressure   1.00000 Atm.
 Atom     1 has atomic number  6 and mass  12.00000

 Molecular mass:    73.05276 amu.
 Principal axes and moments of inertia in atomic units:
                           1         2         3
     Eigenvalues --   207.10524 448.12427 632.22434
           X            0.99854   0.05401  -0.00008
           Y           -0.05401   0.99854  -0.00009
           Z            0.00008   0.00009   1.00000
 This molecule is an asymmetric top.
 Rotational symmetry number  1.
 Rotational temperatures (Kelvin)      0.41821     0.19328     0.13700
 Rotational constants (GHZ):           8.71413     4.02732     2.85459
    1 imaginary frequencies ignored.
 Zero-point vibrational energy     268584.0 (Joules/Mol)
                                   64.19312 (Kcal/Mol)
 Warning -- explicit consideration of   7 degrees of freedom as
           vibrations may cause significant error
 Vibrational temperatures:    152.49   283.74   441.65   701.91   757.18
          (Kelvin)            812.10   884.73  1170.37  1417.79  1493.34
                             1579.36  1649.93  1701.89  1926.98  2012.42
                             2085.86  2113.16  2118.49  2140.48  2149.32
                             2208.84  2485.79  4410.73  4418.94  4511.20
                             4542.46  4611.92  4617.67  5205.71

 Zero-point correction=                           0.102298 (Hartree/Particle)
 Thermal correction to Energy=                    0.107862
 Thermal correction to Enthalpy=                  0.108806
 Thermal correction to Gibbs Free Energy=         0.073590
 Sum of electronic and zero-point Energies=           -247.741240
 Sum of electronic and thermal Energies=              -247.735677
 Sum of electronic and thermal Enthalpies=            -247.734733
 Sum of electronic and thermal Free Energies=         -247.769949

                     E (Thermal)             CV                S
                      KCal/Mol        Cal/Mol-Kelvin    Cal/Mol-Kelvin
 Total                   67.684             18.834             74.118
 Electronic               0.000              0.000              0.000
 Translational            0.889              2.981             38.782
 Rotational               0.889              2.981             25.576
 Vibrational             65.907             12.873              9.760
 Vibration     1          0.605              1.944              3.341
 Vibration     2          0.637              1.844              2.159
 Vibration     3          0.697              1.660              1.379
 Vibration     4          0.844              1.277              0.689
 Vibration     5          0.881              1.192              0.596
 Vibration     6          0.920              1.108              0.515
 Vibration     7          0.974              1.000              0.425

 Optimization completed.
    -- Stationary point found.
 Normal termination of Gaussian 16 at Sat Mar 29 17:34:16 2025.
