 Gaussian 16, Revision C.01,
 Gaussian 16:  EM64L-G16RevC.01  3-Jul-2019

 ----------------------------------------------
 # MP2/aug-cc-pVDZ opt freq=(vibrot,anharmonic)
 ----------------------------------------------

 ----
 blah
 ----
 Symbolic Z-matrix:
 Charge =  0 Multiplicity = 1

 SCF Done:  E(RHF) =  -247.039874883     A.U. after   13 cycles
 E2 =    -0.8042270981D+00 EUMP2 =    -0.24784410198118D+03
 SCF Done:  E(RHF) =  -247.039544431     A.U. after   11 cycles
 E2 =    -0.8074026374D+00 EUMP2 =    -0.24784694706854D+03
 SCF Done:  E(RHF) =  -247.039562621     A.U. after   10 cycles
 E2 =    -0.8075186552D+00 EUMP2 =    -0.24784708127668D+03
 SCF Done:  E(RHF) =  -247.039572674     A.U. after    9 cycles
 E2 =    -0.8075141608D+00 EUMP2 =    -0.24784708683508D+03
 SCF Done:  E(RHF) =  -247.039570226     A.U. after    9 cycles
 E2 =    -0.8075160873D+00 EUMP2 =    -0.24784708631366D+03
 SCF Done:  E(RHF) =  -247.039576787     A.U. after    8 cycles
 E2 =    -0.8075137669D+00 EUMP2 =    -0.24784709055395D+03
 SCF Done:  E(RHF) =  -247.039585509     A.U. after    8 cycles
 E2 =    -0.8075044546D+00 EUMP2 =    -0.24784708996373D+03
 SCF Done:  E(RHF) =  -247.039587985     A.U. after   10 cycles
 E2 =    -0.8075165149D+00 EUMP2 =    -0.24784710450039D+03
 SCF Done:  E(RHF) =  -247.030418873     A.U. after   13 cycles
 E2 =    -0.8087228722D+00 EUMP2 =    -0.24783914174493D+03
 SCF Done:  E(RHF) =  -247.039534641     A.U. after   12 cycles
 E2 =    -0.8077717259D+00 EUMP2 =    -0.24784730636717D+03
 E2 =    -0.8079125660D+00 EUMP2 =    -0.24784732689768D+03
 E2 =    -0.8077116198D+00 EUMP2 =    -0.24784695569845D+03
 E2 =    -0.8075347760D+00 EUMP2 =    -0.24784746807818D+03
 E2 =    -0.8077352284D+00 EUMP2 =    -0.24784758386415D+03
 E2 =    -0.8077815140D+00 EUMP2 =    -0.24784760705524D+03
 E2 =    -0.8077947122D+00 EUMP2 =    -0.24784761920112D+03
 E2 =    -0.8077901606D+00 EUMP2 =    -0.24784762088563D+03
 E2 =    -0.8077918217D+00 EUMP2 =    -0.24784762165380D+03
 E2 =    -0.8077918915D+00 EUMP2 =    -0.24784762231860D+03
 E2 =    -0.8077899407D+00 EUMP2 =    -0.24784762283706D+03
 Optimization completed.
    -- Stationary point found.
 Normal termination of Gaussian 16 at Sat Mar 29 14:43:14 2025.

 ----------------------------------------------------------------------
 #N Geom=AllCheck Guess=TCheck SCRF=Check GenChk RMP2(FC)/Aug-CC-pVDZ F
 req
 ----------------------------------------------------------------------

 Structure from the checkpoint file:  "/scr/Gau-74051.chk"
 ----
 blah
 ----
 Charge =  0 Multiplicity = 1

                         Standard orientation:
 ---------------------------------------------------------------------
 Center     Atomic      Atomic             Coordinates (Angstroms)
 Number     Number       Type             X           Y           Z
 ---------------------------------------------------------------------
      1          6           0       -0.483043    0.157075   -0.000027
      2          8           0       -0.362437    1.389018   -0.000004
      3          7           0        0.610004   -0.666730   -0.000221
      4          6           0       -1.838175   -0.528395    0.000050
      5          1           0       -2.395924   -0.199583   -0.888788
      6          1           0       -2.395695   -0.199844    0.889135
      7          1           0       -1.768950   -1.626436   -0.000127
      8          1           0        0.478497   -1.668568    0.000396
      9          6           0        1.955738   -0.105715    0.000078
     10          1           0        2.111751    0.521941   -0.889896
     11          1           0        2.680378   -0.930549   -0.000934
     12          1           0        2.112288    0.520215    0.891185
 ---------------------------------------------------------------------

 SCF Done:  E(RHF) =  -247.040289651     A.U. after    9 cycles
 E2 =    -0.8076387622D+00 EUMP2 =    -0.24784792841283D+03
 E2 =    -0.8076387622D+00 EUMP2 =    -0.24784792841283D+03
 SCF Done:  E(RHF) =  -247.040290347     A.U. after    9 cycles
 E2 =    -0.8076381942D+00 EUMP2 =    -0.24784792854070D+03
 E2 =    -0.8076381942D+00 EUMP2 =    -0.24784792854070D+03
 SCF Done:  E(RHF) =  -247.040310344     A.U. after    9 cycles
 E2 =    -0.8076177662D+00 EUMP2 =    -0.24784792811059D+03
 E2 =    -0.8076177662D+00 EUMP2 =    -0.24784792811059D+03
 SCF Done:  E(RHF) =  -247.040268465     A.U. after    9 cycles
 E2 =    -0.8076588738D+00 EUMP2 =    -0.24784792733907D+03
 E2 =    -0.8076588738D+00 EUMP2 =    -0.24784792733907D+03
 SCF Done:  E(RHF) =  -247.040289029     A.U. after    8 cycles
 E2 =    -0.8076386305D+00 EUMP2 =    -0.24784792765968D+03
 E2 =    -0.8076386305D+00 EUMP2 =    -0.24784792765968D+03
 SCF Done:  E(RHF) =  -247.040289317     A.U. after    8 cycles
 E2 =    -0.8076382189D+00 EUMP2 =    -0.24784792753609D+03
 E2 =    -0.8076382189D+00 EUMP2 =    -0.24784792753609D+03
 SCF Done:  E(RHF) =  -247.040280161     A.U. after    9 cycles
 E2 =    -0.8076476824D+00 EUMP2 =    -0.24784792784372D+03
 E2 =    -0.8076476824D+00 EUMP2 =    -0.24784792784372D+03
 SCF Done:  E(RHF) =  -247.040297605     A.U. after    9 cycles
 E2 =    -0.8076286242D+00 EUMP2 =    -0.24784792622925D+03
 E2 =    -0.8076286242D+00 EUMP2 =    -0.24784792622925D+03
 SCF Done:  E(RHF) =  -247.039951603     A.U. after   10 cycles
 E2 =    -0.8079550148D+00 EUMP2 =    -0.24784790661812D+03
 E2 =    -0.8079550148D+00 EUMP2 =    -0.24784790661812D+03
 SCF Done:  E(RHF) =  -247.040577989     A.U. after   10 cycles
 E2 =    -0.8073242890D+00 EUMP2 =    -0.24784790227777D+03
 E2 =    -0.8073242890D+00 EUMP2 =    -0.24784790227777D+03

 Alpha  occ. eigenvalues --  -20.52312 -15.59517 -11.35829 -11.27079 -11.24882
 Alpha  occ. eigenvalues --   -1.37030  -1.22742  -1.01541  -0.92986  -0.79110
 Alpha  occ. eigenvalues --   -0.68677  -0.64808  -0.62892  -0.58069  -0.57684
 Alpha  occ. eigenvalues --   -0.55675  -0.54509  -0.49568  -0.41970  -0.39054
 Alpha virt. eigenvalues --    0.02809   0.04244   0.05194   0.05700   0.06753
 Alpha virt. eigenvalues --    0.07121   0.07511   0.12107   0.12113   0.13019
 Alpha virt. eigenvalues --    0.13108   0.14908   0.15614   0.15960   0.16461

 Mulliken charges:
               1
     1  C    0.393623
     2  O   -0.652194
     3  N   -0.154209
     4  C    0.360754
     5  H    0.016679
     6  H    0.016676
     7  H   -0.159621
     8  H   -0.155482
     9  C    0.689805
    10  H   -0.069979
    11  H   -0.216226
    12  H   -0.069826
 Sum of Mulliken charges =  -0.00000

 Dipole moment (field-independent basis, Debye):
    X=              0.7190    Y=             -3.7713    Z=              0.0010  Tot=              3.8392
 Quadrupole moment (field-independent basis, Debye-Ang):
   XX=            -27.6847   YY=            -34.3545   ZZ=            -32.1046
   XY=              0.7629   XZ=              0.0002   YZ=             -0.0021

  Exact polarizability:      61.769      -1.460      54.139       0.001       0.001      40.443
 Approx polarizability:      42.344      -1.078      46.435       0.000       0.001      37.338

                      1                      2                      3
                      A                      A                      A
 Frequencies --     37.9805                50.6835               147.1354
 Red. masses --      1.2367                 1.0325                 2.4351
 Frc consts  --      0.0011                 0.0016                 0.0311
 IR Inten    --     15.6321                 0.0697                15.6380

                      4                      5                      6
                      A                      A                      A
 Frequencies --    259.8131               324.7042               420.6167
 Red. masses --      3.1922                 1.1426                 3.0107
 Frc consts  --      0.1270                 0.0710                 0.3138
 IR Inten    --      6.3676                53.0509                 8.6051

                      7                      8                      9
                      A                      A                      A
 Frequencies --    619.7632               625.0028               876.6909
 Red. masses --      2.4576                 3.8892                 2.6586
 Frc consts  --      0.5562                 0.8951                 1.2039
 IR Inten    --      0.1816                 6.1217                 5.9244

                     10                     11                     12
                      A                      A                      A
 Frequencies --    994.5415              1040.7273              1112.7627
 Red. masses --      1.6402                 1.7124                 2.7473
 Frc consts  --      0.9559                 1.0928                 2.0043
 IR Inten    --      8.9432                 2.9175                 2.4418

                     13                     14                     15
                      A                      A                      A
 Frequencies --   1155.5503              1185.1597              1281.5875
 Red. masses --      1.2827                 1.9038                 1.6570
 Frc consts  --      1.0092                 1.5755                 1.6035
 IR Inten    --      0.0635                 0.6418                54.1090

                     16                     17                     18
                      A                      A                      A
 Frequencies --   1382.9915              1440.5610              1461.2692
 Red. masses --      1.2911                 1.1891                 1.0443
 Frc consts  --      1.4550                 1.4539                 1.3138
 IR Inten    --     24.3902                12.5644                 5.3738

                     19                     20                     21
                      A                      A                      A
 Frequencies --   1469.6425              1475.0787              1505.4369
 Red. masses --      1.0383                 1.0796                 1.1040
 Frc consts  --      1.3212                 1.3840                 1.4742
 IR Inten    --      9.1813                22.9690                 5.1012

                     22                     23                     24
                      A                      A                      A
 Frequencies --   1555.7018              1721.0566              3076.8162
 Red. masses --      2.2070                 8.7951                 1.0350
 Frc consts  --      3.1471                15.3491                 5.7730
 IR Inten    --    222.9391               265.6892                 4.7767

                     25                     26                     27
                      A                      A                      A
 Frequencies --   3077.6237              3159.5071              3177.1811
 Red. masses --      1.0337                 1.1046                 1.1033
 Frc consts  --      5.7689                 6.4970                 6.5620
 IR Inten    --     39.8579                15.6613                14.0716

                     28                     29                     30
                      A                      A                      A
 Frequencies --   3180.0968              3193.0951              3679.1411
 Red. masses --      1.1009                 1.1040                 1.0794
 Frc consts  --      6.5597                 6.6321                 8.6087
 IR Inten    --      3.3867                13.1373                37.8755

 - Thermochemistry -
 -------------------
 Temperature   298.150 Kelvin.  Pressure   1.00000 Atm.
 Atom     1 has atomic number  6 and mass  12.00000

 Molecular mass:    73.05276 amu.
 Principal axes and moments of inertia in atomic units:
                           1         2         3
     Eigenvalues --   181.29394 467.86314 626.36360
           X            0.99944   0.03342   0.00000
           Y           -0.03342   0.99944  -0.00002
           Z           -0.00000   0.00002   1.00000
 This molecule is an asymmetric top.
 Rotational symmetry number  1.
 Rotational temperatures (Kelvin)      0.47775     0.18513     0.13828
 Rotational constants (GHZ):           9.95478     3.85741     2.88130
 Zero-point vibrational energy     267293.1 (Joules/Mol)
                                   63.88459 (Kcal/Mol)
 Warning -- explicit consideration of   7 degrees of freedom as
           vibrations may cause significant error
 Vibrational temperatures:     54.65    72.92   211.70   373.81   467.18
          (Kelvin)            605.17   891.70   899.24  1261.36  1430.92
                             1497.37  1601.02  1662.58  1705.18  1843.92
                             1989.82  2072.65  2102.44  2114.49  2122.31
                             2165.99  2238.31  2476.22  4426.85  4428.01
                             4545.83  4571.25  4575.45  4594.15  5293.46

 Zero-point correction=                           0.101807 (Hartree/Particle)
 Thermal correction to Energy=                    0.108673
 Thermal correction to Enthalpy=                  0.109618
 Thermal correction to Gibbs Free Energy=         0.070469
 Sum of electronic and zero-point Energies=           -247.746189
 Sum of electronic and thermal Energies=              -247.739323
 Sum of electronic and thermal Enthalpies=            -247.738378
 Sum of electronic and thermal Free Energies=         -247.777527

                     E (Thermal)             CV                S
                      KCal/Mol        Cal/Mol-Kelvin    Cal/Mol-Kelvin
 Total                   68.194             21.346             82.396
 Electronic               0.000              0.000              0.000
 Translational            0.889              2.981             38.782
 Rotational               0.889              2.981             25.477
 Vibrational             66.416             15.384             18.137
 Vibration     1          0.594              1.982              5.362
 Vibration     2          0.595              1.977              4.791
 Vibration     3          0.617              1.906              2.709
 Vibration     4          0.668              1.746              1.663
 Vibration     5          0.709              1.626              1.286
 Vibration     6          0.783              1.425              0.890
 Vibration     7          0.980              0.990              0.417

 ## DEPERTURBED TRANSITIONS MOMENTS ##

 Electric dipole : Fundamental Bands
 ------------------------------------------------------------------------

 ## AFTER VARIATIONAL CORRECTION

 Electric dipole : Fundamental Bands
 ------------------------------------------------------------------------

 Optimization completed.
    -- Stationary point found.
 Normal termination of Gaussian 16 at Sat Mar 29 17:44:54 2025.
