 Gaussian 16, Revision A.03,
 Gaussian 16:  ES64L-G16RevA.03 25-Dec-2016

 ----------------------------------------------
 # MP2/aug-cc-pVDZ opt freq=(vibrot,anharmonic)
 ----------------------------------------------

 ----
 bleh
 ----
 Symbolic Z-matrix:
 Charge =  0 Multiplicity = 1

 SCF Done:  E(RHF) =  -133.058097914     A.U. after   11 cycles
 E2 =    -0.4680506354D+00 EUMP2 =    -0.13352614854951D+03
 SCF Done:  E(RHF) =  -133.058219331     A.U. after   11 cycles
 E2 =    -0.4696637807D+00 EUMP2 =    -0.13352788311167D+03
 SCF Done:  E(RHF) =  -133.058077474     A.U. after    9 cycles
 E2 =    -0.4699500909D+00 EUMP2 =    -0.13352802756511D+03
 SCF Done:  E(RHF) =  -133.057915928     A.U. after    9 cycles
 E2 =    -0.4701359889D+00 EUMP2 =    -0.13352805191660D+03
 SCF Done:  E(RHF) =  -133.057838682     A.U. after    8 cycles
 E2 =    -0.4702164162D+00 EUMP2 =    -0.13352805509802D+03
 Optimization completed.
    -- Stationary point found.
 Normal termination of Gaussian 16 at Mon Dec 20 10:48:18 2021.

 ----------------------------------------------------------------------
 #N Geom=AllCheck Guess=TCheck SCRF=Check GenChk RMP2(FC)/Aug-CC-pVDZ F
 req
 ----------------------------------------------------------------------

 Structure from the checkpoint file:  "/gscratch/scrubbed/gds001/Gau-23231.chk"
 ----
 bleh
 ----
 Charge =  0 Multiplicity = 1

                         Standard orientation:
 ---------------------------------------------------------------------
 Center     Atomic      Atomic             Coordinates (Angstroms)
 Number     Number       Type             X           Y           Z
 ---------------------------------------------------------------------
      1          7           0        0.000010    0.869278   -0.173883
      2          1           0        0.000021    1.387481    0.708463
      3          6           0       -0.745941   -0.404791    0.023341
      4          6           0        0.745931   -0.404807    0.023340
      5          1           0       -1.284212   -0.745548   -0.862609
      6          1           0       -1.255952   -0.561846    0.976926
      7          1           0        1.255941   -0.561871    0.976925
      8          1           0        1.284195   -0.745572   -0.862610
 ---------------------------------------------------------------------

 SCF Done:  E(RHF) =  -133.057838682     A.U. after    1 cycles
 E2 =    -0.4702164175D+00 EUMP2 =    -0.13352805509934D+03
 E2 =    -0.4702164175D+00 EUMP2 =    -0.13352805509934D+03
 SCF Done:  E(RHF) =  -133.057796539     A.U. after    9 cycles
 E2 =    -0.4702559424D+00 EUMP2 =    -0.13352805248101D+03
 E2 =    -0.4702559424D+00 EUMP2 =    -0.13352805248101D+03
 SCF Done:  E(RHF) =  -133.057870244     A.U. after    9 cycles
 E2 =    -0.4701793732D+00 EUMP2 =    -0.13352804961750D+03
 E2 =    -0.4701793732D+00 EUMP2 =    -0.13352804961750D+03
 SCF Done:  E(RHF) =  -133.057833438     A.U. after    8 cycles
 E2 =    -0.4702169201D+00 EUMP2 =    -0.13352805035831D+03
 E2 =    -0.4702169201D+00 EUMP2 =    -0.13352805035831D+03
 SCF Done:  E(RHF) =  -133.057833452     A.U. after    8 cycles
 E2 =    -0.4702169123D+00 EUMP2 =    -0.13352805036417D+03
 E2 =    -0.4702169123D+00 EUMP2 =    -0.13352805036417D+03
 E2 =    -0.4701292643D+00 EUMP2 =    -0.13352805028834D+03
 E2 =    -0.4701292643D+00 EUMP2 =    -0.13352805028834D+03
 E2 =    -0.4703046667D+00 EUMP2 =    -0.13352804964467D+03
 E2 =    -0.4703046667D+00 EUMP2 =    -0.13352804964467D+03
 E2 =    -0.4702179893D+00 EUMP2 =    -0.13352804956515D+03
 SCF Done:  E(RHF) =  -133.057770963     A.U. after    8 cycles
 E2 =    -0.4702165333D+00 EUMP2 =    -0.13352798749639D+03
 E2 =    -0.4702165333D+00 EUMP2 =    -0.13352798749639D+03
 SCF Done:  E(RHF) =  -133.057770959     A.U. after    8 cycles
 E2 =    -0.4702165379D+00 EUMP2 =    -0.13352798749723D+03
 E2 =    -0.4702165379D+00 EUMP2 =    -0.13352798749723D+03
 SCF Done:  E(RHF) =  -133.058035559     A.U. after    9 cycles
 E2 =    -0.4699507715D+00 EUMP2 =    -0.13352798633041D+03
 E2 =    -0.4699507715D+00 EUMP2 =    -0.13352798633041D+03
 SCF Done:  E(RHF) =  -133.057505532     A.U. after    9 cycles
 E2 =    -0.4704825241D+00 EUMP2 =    -0.13352798805644D+03
 E2 =    -0.4704825241D+00 EUMP2 =    -0.13352798805644D+03
 SCF Done:  E(RHF) =  -133.057767084     A.U. after    8 cycles
 E2 =    -0.4702160417D+00 EUMP2 =    -0.13352798312600D+03
 E2 =    -0.4702160417D+00 EUMP2 =    -0.13352798312600D+03
 SCF Done:  E(RHF) =  -133.057767085     A.U. after    8 cycles
 E2 =    -0.4702160394D+00 EUMP2 =    -0.13352798312420D+03
 E2 =    -0.4702160394D+00 EUMP2 =    -0.13352798312420D+03
 SCF Done:  E(RHF) =  -133.057804383     A.U. after    9 cycles
 E2 =    -0.4701772454D+00 EUMP2 =    -0.13352798162804D+03
 E2 =    -0.4701772454D+00 EUMP2 =    -0.13352798162804D+03
 SCF Done:  E(RHF) =  -133.057728444     A.U. after    8 cycles
 E2 =    -0.4702550415D+00 EUMP2 =    -0.13352798348574D+03
 E2 =    -0.4702550415D+00 EUMP2 =    -0.13352798348574D+03
 SCF Done:  E(RHF) =  -133.057429251     A.U. after    9 cycles
 E2 =    -0.4705441983D+00 EUMP2 =    -0.13352797344904D+03
 E2 =    -0.4705441983D+00 EUMP2 =    -0.13352797344904D+03
 SCF Done:  E(RHF) =  -133.058080159     A.U. after    9 cycles
 E2 =    -0.4698896253D+00 EUMP2 =    -0.13352796978394D+03
 E2 =    -0.4698896253D+00 EUMP2 =    -0.13352796978394D+03

 Alpha  occ. eigenvalues --  -15.56877 -11.26610 -11.26540  -1.24975  -0.89614
 Alpha  occ. eigenvalues --   -0.83690  -0.69368  -0.63223  -0.52820  -0.47855
 Alpha  occ. eigenvalues --   -0.47301  -0.39478
 Alpha virt. eigenvalues --    0.03620   0.04896   0.04938   0.05772   0.07186
 Alpha virt. eigenvalues --    0.11059   0.11925   0.12257   0.14344   0.16316
 Alpha virt. eigenvalues --    0.17496   0.18532   0.19754   0.20589   0.20848

 Mulliken charges:
               1
     1  N   -0.436012
     2  H   -0.005654
     3  C    0.832347
     4  C    0.832347
     5  H   -0.300714
     6  H   -0.310799
     7  H   -0.310799
     8  H   -0.300715
 Sum of Mulliken charges =  -0.00000

 Dipole moment (field-independent basis, Debye):
    X=             -0.0000    Y=             -0.9574    Z=              1.4628  Tot=              1.7483
 Quadrupole moment (field-independent basis, Debye-Ang):
   XX=            -19.1144   YY=            -21.3991   ZZ=            -18.9268
   XY=             -0.0000   XZ=              0.0000   YZ=              2.7056

  Exact polarizability:  35.810   0.000  34.080  -0.000  -0.262  30.577
 Approx polarizability:  29.850   0.000  29.240   0.000   0.081  26.403

                      1                      2                      3
                      A                      A                      A
 Frequencies --    774.2647               837.5088               871.6436
 Red. masses --      1.1379                 7.6233                 3.4083
 Frc consts  --      0.4019                 3.1505                 1.5257
 IR Inten    --     18.0500                 0.0726                50.8468

                      4                      5                      6
                      A                      A                      A
 Frequencies --    904.7636              1010.2603              1094.7042
 Red. masses --      1.0741                 1.0503                 1.3032
 Frc consts  --      0.5180                 0.6316                 0.9202
 IR Inten    --     12.4001                 6.0846                 1.3212

                      7                      8                      9
                      A                      A                      A
 Frequencies --   1100.6502              1147.6787              1239.5310
 Red. masses --      1.2470                 1.1006                 2.3975
 Frc consts  --      0.8900                 0.8542                 2.1703
 IR Inten    --     10.1934                 1.8587                13.0670

                     10                     11                     12
                      A                      A                      A
 Frequencies --   1247.1220              1293.2277              1487.4610
 Red. masses --      1.3091                 1.4883                 1.0788
 Frc consts  --      1.1996                 1.4665                 1.4063
 IR Inten    --      8.8083                 4.2049                 0.0941

                     13                     14                     15
                      A                      A                      A
 Frequencies --   1517.7125              3162.9250              3170.0303
 Red. masses --      1.2681                 1.0475                 1.0598
 Frc consts  --      1.7211                 6.1742                 6.2747
 IR Inten    --      0.9914                20.2153                12.6455

                     16                     17                     18
                      A                      A                      A
 Frequencies --   3263.5933              3276.4423              3514.3817
 Red. masses --      1.1214                 1.1205                 1.0768
 Frc consts  --      7.0370                 7.0868                 7.8358
 IR Inten    --      0.2817                18.8285                 2.8768

 - Thermochemistry -
 -------------------
 Temperature   298.150 Kelvin.  Pressure   1.00000 Atm.
 Atom     1 has atomic number  7 and mass  14.00307

 Molecular mass:    43.04220 amu.
 Principal axes and moments of inertia in atomic units:
                           1         2         3
     Eigenvalues --    80.42776  86.10098 136.15331
           X            1.00000  -0.00001   0.00000
           Y            0.00001   0.99669   0.08135
           Z           -0.00000  -0.08135   0.99669
 This molecule is an asymmetric top.
 Rotational symmetry number  1.
 Rotational temperatures (Kelvin)      1.07692     1.00596     0.63615
 Rotational constants (GHZ):          22.43928    20.96075    13.25521
 Zero-point vibrational energy     184906.2 (Joules/Mol)
                                   44.19364 (Kcal/Mol)
 Vibrational temperatures:   1113.99  1204.99  1254.10  1301.75  1453.54
          (Kelvin)           1575.04  1583.59  1651.25  1783.41  1794.33
                             1860.67  2140.12  2183.65  4550.74  4560.97
                             4695.58  4714.07  5056.41

 Zero-point correction=                           0.070427 (Hartree/Particle)
 Thermal correction to Energy=                    0.073683
 Thermal correction to Enthalpy=                  0.074627
 Thermal correction to Gibbs Free Energy=         0.046230
 Sum of electronic and zero-point Energies=           -133.457628
 Sum of electronic and thermal Energies=              -133.454372
 Sum of electronic and thermal Enthalpies=            -133.453428
 Sum of electronic and thermal Free Energies=         -133.481825

                     E (Thermal)             CV                S
                      KCal/Mol        Cal/Mol-Kelvin    Cal/Mol-Kelvin
 Total                   46.237             10.109             59.766
 Electronic               0.000              0.000              0.000
 Translational            0.889              2.981             37.205
 Rotational               0.889              2.981             21.472
 Vibrational             44.459              4.147              1.089

 ## DEPERTURBED TRANSITIONS MOMENTS ##

 Electric dipole : Fundamental Bands
 ------------------------------------------------------------------------

 ## AFTER VARIATIONAL CORRECTION

 Electric dipole : Fundamental Bands
 ------------------------------------------------------------------------

                           ! Non-Optimized Parameters !
 Normal termination of Gaussian 16 at Mon Dec 20 11:14:07 2021.
