 Gaussian 16, Revision A.03,
 Gaussian 16:  ES64L-G16RevA.03 25-Dec-2016

 ----------------------------------------------
 # MP2/aug-cc-pVTZ opt freq=(vibrot,anharmonic)
 ----------------------------------------------

 ----
 bleh
 ----
 Symbolic Z-matrix:
 Charge =  0 Multiplicity = 1

 SCF Done:  E(RHF) =  -133.089426975     A.U. after   11 cycles
 E2 =    -0.5626368306D+00 EUMP2 =    -0.13365206380604D+03
 SCF Done:  E(RHF) =  -133.091385337     A.U. after    9 cycles
 E2 =    -0.5613378045D+00 EUMP2 =    -0.13365272314196D+03
 SCF Done:  E(RHF) =  -133.091575075     A.U. after    8 cycles
 E2 =    -0.5611628739D+00 EUMP2 =    -0.13365273794904D+03
 SCF Done:  E(RHF) =  -133.091685478     A.U. after    7 cycles
 E2 =    -0.5610570289D+00 EUMP2 =    -0.13365274250643D+03
 Optimization completed.
    -- Stationary point found.
 Normal termination of Gaussian 16 at Mon Dec 20 12:37:43 2021.

 ----------------------------------------------------------------------
 #N Geom=AllCheck Guess=TCheck SCRF=Check GenChk RMP2(FC)/Aug-CC-pVTZ F
 req
 ----------------------------------------------------------------------

 Structure from the checkpoint file:  "/gscratch/scrubbed/gds001/Gau-29878.chk"
 ----
 bleh
 ----
 Charge =  0 Multiplicity = 1

                         Standard orientation:
 ---------------------------------------------------------------------
 Center     Atomic      Atomic             Coordinates (Angstroms)
 Number     Number       Type             X           Y           Z
 ---------------------------------------------------------------------
      1          7           0       -0.000004    0.860953   -0.172872
      2          1           0       -0.000009    1.381080    0.698279
      3          6           0       -0.739454   -0.400703    0.023504
      4          6           0        0.739458   -0.400697    0.023504
      5          1           0       -1.269612   -0.743227   -0.852247
      6          1           0       -1.242807   -0.556460    0.967136
      7          1           0        1.242812   -0.556449    0.967136
      8          1           0        1.269618   -0.743217   -0.852247
 ---------------------------------------------------------------------

 SCF Done:  E(RHF) =  -133.091685478     A.U. after    1 cycles
 E2 =    -0.5610570291D+00 EUMP2 =    -0.13365274250670D+03
 E2 =    -0.5610570291D+00 EUMP2 =    -0.13365274250669D+03
 SCF Done:  E(RHF) =  -133.091719085     A.U. after    8 cycles
 E2 =    -0.5610210149D+00 EUMP2 =    -0.13365274010024D+03
 E2 =    -0.5610210149D+00 EUMP2 =    -0.13365274010024D+03
 SCF Done:  E(RHF) =  -133.091641414     A.U. after    8 cycles
 E2 =    -0.5610951626D+00 EUMP2 =    -0.13365273657668D+03
 E2 =    -0.5610951626D+00 EUMP2 =    -0.13365273657668D+03
 SCF Done:  E(RHF) =  -133.091679949     A.U. after    7 cycles
 E2 =    -0.5610575782D+00 EUMP2 =    -0.13365273752727D+03
 E2 =    -0.5610575782D+00 EUMP2 =    -0.13365273752727D+03
 SCF Done:  E(RHF) =  -133.091679945     A.U. after    7 cycles
 E2 =    -0.5610575804D+00 EUMP2 =    -0.13365273752558D+03
 E2 =    -0.5610575804D+00 EUMP2 =    -0.13365273752558D+03
 SCF Done:  E(RHF) =  -133.091758027     A.U. after    7 cycles
 E2 =    -0.5609795015D+00 EUMP2 =    -0.13365273752868D+03
 E2 =    -0.5609795015D+00 EUMP2 =    -0.13365273752868D+03
 E2 =    -0.5611357273D+00 EUMP2 =    -0.13365273690099D+03
 E2 =    -0.5611357273D+00 EUMP2 =    -0.13365273690099D+03
 E2 =    -0.5610584107D+00 EUMP2 =    -0.13365273683880D+03
 E2 =    -0.5610584107D+00 EUMP2 =    -0.13365273683880D+03
 SCF Done:  E(RHF) =  -133.091616458     A.U. after    8 cycles
 E2 =    -0.5610583182D+00 EUMP2 =    -0.13365267477610D+03
 E2 =    -0.5610583182D+00 EUMP2 =    -0.13365267477610D+03
 SCF Done:  E(RHF) =  -133.091616465     A.U. after    8 cycles
 E2 =    -0.5610583119D+00 EUMP2 =    -0.13365267477718D+03
 E2 =    -0.5610583119D+00 EUMP2 =    -0.13365267477718D+03
 SCF Done:  E(RHF) =  -133.091459727     A.U. after    8 cycles
 E2 =    -0.5612155657D+00 EUMP2 =    -0.13365267529291D+03
 E2 =    -0.5612155657D+00 EUMP2 =    -0.13365267529291D+03
 SCF Done:  E(RHF) =  -133.091772389     A.U. after    8 cycles
 E2 =    -0.5609013048D+00 EUMP2 =    -0.13365267369415D+03
 E2 =    -0.5609013048D+00 EUMP2 =    -0.13365267369415D+03
 SCF Done:  E(RHF) =  -133.091612828     A.U. after    7 cycles
 E2 =    -0.5610578032D+00 EUMP2 =    -0.13365267063072D+03
 E2 =    -0.5610578032D+00 EUMP2 =    -0.13365267063072D+03
 SCF Done:  E(RHF) =  -133.091612828     A.U. after    7 cycles
 E2 =    -0.5610578037D+00 EUMP2 =    -0.13365267063122D+03
 E2 =    -0.5610578037D+00 EUMP2 =    -0.13365267063122D+03
 SCF Done:  E(RHF) =  -133.091639530     A.U. after    8 cycles
 E2 =    -0.5610311349D+00 EUMP2 =    -0.13365267066452D+03
 E2 =    -0.5610311349D+00 EUMP2 =    -0.13365267066452D+03
 SCF Done:  E(RHF) =  -133.091584738     A.U. after    8 cycles
 E2 =    -0.5610847611D+00 EUMP2 =    -0.13365266949912D+03
 E2 =    -0.5610847611D+00 EUMP2 =    -0.13365266949912D+03
 SCF Done:  E(RHF) =  -133.091323324     A.U. after    8 cycles
 E2 =    -0.5613375133D+00 EUMP2 =    -0.13365266083771D+03
 E2 =    -0.5613375133D+00 EUMP2 =    -0.13365266083770D+03
 SCF Done:  E(RHF) =  -133.091875798     A.U. after    8 cycles
 E2 =    -0.5607788075D+00 EUMP2 =    -0.13365265460600D+03
 E2 =    -0.5607788075D+00 EUMP2 =    -0.13365265460600D+03

 Alpha  occ. eigenvalues --  -15.55750 -11.25509 -11.25433  -1.25588  -0.89842
 Alpha  occ. eigenvalues --   -0.83990  -0.70009  -0.63755  -0.53110  -0.48060
 Alpha  occ. eigenvalues --   -0.47701  -0.39553
 Alpha virt. eigenvalues --    0.02942   0.04025   0.04083   0.04746   0.06038
 Alpha virt. eigenvalues --    0.09400   0.09781   0.10058   0.11880   0.13340
 Alpha virt. eigenvalues --    0.13944   0.14879   0.16458   0.16503   0.18028

 Mulliken charges:
               1
     1  N   -0.428138
     2  H    0.131006
     3  C   -0.655381
     4  C   -0.655383
     5  H    0.422273
     6  H    0.381676
     7  H    0.381676
     8  H    0.422273
 Sum of Mulliken charges =  -0.00000

 Dipole moment (field-independent basis, Debye):
    X=              0.0000    Y=             -0.9479    Z=              1.4564  Tot=              1.7377
 Quadrupole moment (field-independent basis, Debye-Ang):
   XX=            -18.8353   YY=            -21.0487   ZZ=            -18.6481
   XY=             -0.0000   XZ=             -0.0000   YZ=              2.6862

  Exact polarizability:  35.131   0.000  33.564   0.000  -0.299  30.062
 Approx polarizability:  29.241  -0.000  28.689  -0.000   0.045  25.904

                      1                      2                      3
                      A                      A                      A
 Frequencies --    784.4900               857.8106               884.2697
 Red. masses --      1.1423                 7.0836                 3.3174
 Frc consts  --      0.4142                 3.0711                 1.5283
 IR Inten    --     19.0488                 0.2475                53.8129

                      4                      5                      6
                      A                      A                      A
 Frequencies --    915.3039              1016.8250              1113.1157
 Red. masses --      1.0845                 1.0503                 1.2510
 Frc consts  --      0.5353                 0.6398                 0.9132
 IR Inten    --     12.6545                 5.5500                10.1211

                      7                      8                      9
                      A                      A                      A
 Frequencies --   1113.8656              1161.2946              1247.3436
 Red. masses --      1.3045                 1.0963                 2.4824
 Frc consts  --      0.9536                 0.8711                 2.2756
 IR Inten    --      1.5276                 1.9397                14.4178

                     10                     11                     12
                      A                      A                      A
 Frequencies --   1258.4359              1304.9890              1505.4015
 Red. masses --      1.3139                 1.4893                 1.0790
 Frc consts  --      1.2259                 1.4943                 1.4407
 IR Inten    --      8.7115                 4.4429                 0.2913

                     13                     14                     15
                      A                      A                      A
 Frequencies --   1534.0525              3165.7020              3172.3279
 Red. masses --      1.2510                 1.0471                 1.0587
 Frc consts  --      1.7345                 6.1828                 6.2772
 IR Inten    --      0.9032                17.7096                11.7043

                     16                     17                     18
                      A                      A                      A
 Frequencies --   3261.1750              3273.5964              3541.4955
 Red. masses --      1.1218                 1.1206                 1.0764
 Frc consts  --      7.0292                 7.0752                 7.9543
 IR Inten    --      0.2357                14.6019                 4.6194

 - Thermochemistry -
 -------------------
 Temperature   298.150 Kelvin.  Pressure   1.00000 Atm.
 Atom     1 has atomic number  7 and mass  14.00307

 Molecular mass:    43.04220 amu.
 Principal axes and moments of inertia in atomic units:
                           1         2         3
     Eigenvalues --    78.96203  84.44368 133.68625
           X            1.00000   0.00000  -0.00000
           Y           -0.00000   0.99667   0.08152
           Z            0.00000  -0.08152   0.99667
 This molecule is an asymmetric top.
 Rotational symmetry number  1.
 Rotational temperatures (Kelvin)      1.09691     1.02570     0.64789
 Rotational constants (GHZ):          22.85581    21.37213    13.49983
 Zero-point vibrational energy     186088.1 (Joules/Mol)
                                   44.47611 (Kcal/Mol)
 Vibrational temperatures:   1128.71  1234.20  1272.27  1316.92  1462.98
          (Kelvin)           1601.53  1602.60  1670.84  1794.65  1810.61
                             1877.59  2165.94  2207.16  4554.74  4564.27
                             4692.10  4709.98  5095.42

 Zero-point correction=                           0.070877 (Hartree/Particle)
 Thermal correction to Energy=                    0.074113
 Thermal correction to Enthalpy=                  0.075057
 Thermal correction to Gibbs Free Energy=         0.046713
 Sum of electronic and zero-point Energies=           -133.581865
 Sum of electronic and thermal Energies=              -133.578630
 Sum of electronic and thermal Enthalpies=            -133.577686
 Sum of electronic and thermal Free Energies=         -133.606030

                     E (Thermal)             CV                S
                      KCal/Mol        Cal/Mol-Kelvin    Cal/Mol-Kelvin
 Total                   46.506              9.959             59.655
 Electronic               0.000              0.000              0.000
 Translational            0.889              2.981             37.205
 Rotational               0.889              2.981             21.416
 Vibrational             44.729              3.998              1.034

 ## DEPERTURBED TRANSITIONS MOMENTS ##

 Electric dipole : Fundamental Bands
 ------------------------------------------------------------------------

 ## AFTER VARIATIONAL CORRECTION

 Electric dipole : Fundamental Bands
 ------------------------------------------------------------------------

                           ! Non-Optimized Parameters !
 Normal termination of Gaussian 16 at Mon Dec 20 19:01:17 2021.
