 Gaussian 16, Revision C.01,
 Gaussian 16:  EM64L-G16RevC.01  3-Jul-2019

 ----------------------------------------------
 # MP2/aug-cc-pVDZ opt freq=(vibrot,anharmonic)
 ----------------------------------------------

 ----
 blah
 ----
 Symbolic Z-matrix:
 Charge =  0 Multiplicity = 1

 SCF Done:  E(RHF) =  -209.968354501     A.U. after   13 cycles
 E2 =    -0.7363359379D+00 EUMP2 =    -0.21070469043869D+03
 SCF Done:  E(RHF) =  -209.970343764     A.U. after   12 cycles
 E2 =    -0.7363555502D+00 EUMP2 =    -0.21070669931465D+03
 SCF Done:  E(RHF) =  -209.970540936     A.U. after   11 cycles
 E2 =    -0.7365335821D+00 EUMP2 =    -0.21070707451771D+03
 SCF Done:  E(RHF) =  -209.970651715     A.U. after   12 cycles
 E2 =    -0.7365761641D+00 EUMP2 =    -0.21070722787873D+03
 SCF Done:  E(RHF) =  -209.970719143     A.U. after   10 cycles
 E2 =    -0.7365404817D+00 EUMP2 =    -0.21070725962439D+03
 SCF Done:  E(RHF) =  -209.970794363     A.U. after   10 cycles
 E2 =    -0.7364857664D+00 EUMP2 =    -0.21070728012893D+03
 SCF Done:  E(RHF) =  -209.970845545     A.U. after   10 cycles
 E2 =    -0.7364481466D+00 EUMP2 =    -0.21070729369144D+03
 SCF Done:  E(RHF) =  -209.970860035     A.U. after   10 cycles
 E2 =    -0.7364375956D+00 EUMP2 =    -0.21070729763069D+03
 SCF Done:  E(RHF) =  -209.970848575     A.U. after    9 cycles
 E2 =    -0.7364510009D+00 EUMP2 =    -0.21070729957614D+03
 SCF Done:  E(RHF) =  -209.970843957     A.U. after   10 cycles
 E2 =    -0.7364570528D+00 EUMP2 =    -0.21070730100943D+03
 E2 =    -0.7364716391D+00 EUMP2 =    -0.21070730240172D+03
 E2 =    -0.7364833076D+00 EUMP2 =    -0.21070730378279D+03
 E2 =    -0.7364872563D+00 EUMP2 =    -0.21070730398995D+03
 E2 =    -0.7364852376D+00 EUMP2 =    -0.21070730402239D+03
 Optimization completed.
    -- Stationary point found.
 Normal termination of Gaussian 16 at Tue Apr  8 16:47:17 2025.

 ----------------------------------------------------------------------
 #N Geom=AllCheck Guess=TCheck SCRF=Check GenChk RMP2(FC)/Aug-CC-pVDZ F
 req
 ----------------------------------------------------------------------

 Structure from the checkpoint file:  "/scr/Gau-98041.chk"
 ----
 blah
 ----
 Charge =  0 Multiplicity = 1

                         Standard orientation:
 ---------------------------------------------------------------------
 Center     Atomic      Atomic             Coordinates (Angstroms)
 Number     Number       Type             X           Y           Z
 ---------------------------------------------------------------------
      1          6           0        1.998274   -0.670314   -0.102148
      2          6           0        1.339468    0.511920    0.005479
      3          1           0        1.491010   -1.631687   -0.193148
      4          1           0        3.088047   -0.661530   -0.100118
      5          7           0       -0.039218    0.702387    0.090626
      6          1           0        1.904962    1.446897    0.059595
      7          6           0       -0.972868   -0.327984    0.155709
      8          1           0       -0.388867    1.634690   -0.095554
      9          6           0       -2.294122   -0.199665   -0.118959
     10          1           0       -0.562847   -1.281463    0.499318
     11          1           0       -2.722150    0.742061   -0.473267
     12          1           0       -2.960141   -1.049416    0.028298
 ---------------------------------------------------------------------

 E2 =    -0.7364852375D+00 EUMP2 =    -0.21070730402226D+03
 E2 =    -0.7364852375D+00 EUMP2 =    -0.21070730402226D+03
 E2 =    -0.7364876316D+00 EUMP2 =    -0.21070730400020D+03
 E2 =    -0.7364876316D+00 EUMP2 =    -0.21070730400020D+03
 E2 =    -0.7364835768D+00 EUMP2 =    -0.21070730399757D+03
 E2 =    -0.7364835768D+00 EUMP2 =    -0.21070730399757D+03
 SCF Done:  E(RHF) =  -209.970597531     A.U. after    9 cycles
 E2 =    -0.7366374771D+00 EUMP2 =    -0.21070723500765D+03
 E2 =    -0.7366374771D+00 EUMP2 =    -0.21070723500765D+03
 SCF Done:  E(RHF) =  -209.970899205     A.U. after    9 cycles
 E2 =    -0.7363336913D+00 EUMP2 =    -0.21070723289601D+03
 E2 =    -0.7363336913D+00 EUMP2 =    -0.21070723289601D+03
 SCF Done:  E(RHF) =  -209.970998401     A.U. after    9 cycles
 E2 =    -0.7362339308D+00 EUMP2 =    -0.21070723233222D+03
 E2 =    -0.7362339308D+00 EUMP2 =    -0.21070723233222D+03
 SCF Done:  E(RHF) =  -209.970496961     A.U. after    9 cycles
 E2 =    -0.7367376361D+00 EUMP2 =    -0.21070723459665D+03
 E2 =    -0.7367376361D+00 EUMP2 =    -0.21070723459665D+03
 SCF Done:  E(RHF) =  -209.970809723     A.U. after    9 cycles
 E2 =    -0.7364198369D+00 EUMP2 =    -0.21070722955988D+03
 E2 =    -0.7364198369D+00 EUMP2 =    -0.21070722955988D+03
 SCF Done:  E(RHF) =  -209.970680833     A.U. after    9 cycles
 E2 =    -0.7365499356D+00 EUMP2 =    -0.21070723076882D+03
 E2 =    -0.7365499356D+00 EUMP2 =    -0.21070723076882D+03
 SCF Done:  E(RHF) =  -209.970733296     A.U. after    9 cycles
 E2 =    -0.7364967613D+00 EUMP2 =    -0.21070723005719D+03
 E2 =    -0.7364967613D+00 EUMP2 =    -0.21070723005719D+03
 SCF Done:  E(RHF) =  -209.970756573     A.U. after    9 cycles
 E2 =    -0.7364730642D+00 EUMP2 =    -0.21070722963702D+03
 E2 =    -0.7364730642D+00 EUMP2 =    -0.21070722963702D+03
 SCF Done:  E(RHF) =  -209.970397426     A.U. after    9 cycles
 E2 =    -0.7368189204D+00 EUMP2 =    -0.21070721634624D+03
 E2 =    -0.7368189204D+00 EUMP2 =    -0.21070721634624D+03
 SCF Done:  E(RHF) =  -209.971059345     A.U. after    9 cycles
 E2 =    -0.7361531274D+00 EUMP2 =    -0.21070721247216D+03
 E2 =    -0.7361531274D+00 EUMP2 =    -0.21070721247216D+03

 Alpha  occ. eigenvalues --  -15.59759 -11.29272 -11.28934 -11.22517 -11.22174
 Alpha  occ. eigenvalues --   -1.26090  -1.04364  -0.98172  -0.83650  -0.77890
 Alpha  occ. eigenvalues --   -0.69162  -0.66131  -0.59544  -0.57828  -0.54537
 Alpha  occ. eigenvalues --   -0.53420  -0.51367  -0.37727  -0.29325
 Alpha virt. eigenvalues --    0.03398   0.04302   0.04487   0.05897   0.06437
 Alpha virt. eigenvalues --    0.07761   0.08425   0.09818   0.11676   0.12112
 Alpha virt. eigenvalues --    0.13464   0.14306   0.15048   0.15263   0.16284

 Mulliken charges:
               1
     1  C    0.588221
     2  C    0.728008
     3  H   -0.365721
     4  H   -0.293651
     5  N   -0.222937
     6  H   -0.436905
     7  C    0.650198
     8  H   -0.132196
     9  C    0.588130
    10  H   -0.454606
    11  H   -0.370674
    12  H   -0.277868
 Sum of Mulliken charges =  -0.00000

 Dipole moment (field-independent basis, Debye):
    X=             -0.1460    Y=              1.1238    Z=             -0.0869  Tot=              1.1366
 Quadrupole moment (field-independent basis, Debye-Ang):
   XX=            -32.5054   YY=            -27.6360   ZZ=            -37.1327
   XY=              0.4297   XZ=              0.4473   YZ=             -1.2065

  Exact polarizability:      98.832      -5.644      58.938       1.352       0.144      47.191
 Approx polarizability:      67.130      -5.267      54.148       1.365       0.294      44.832

                      1                      2                      3
                      A                      A                      A
 Frequencies --     56.1484               171.4447               248.5707
 Red. masses --      2.2990                 1.8941                 2.4395
 Frc consts  --      0.0043                 0.0328                 0.0888
 IR Inten    --      1.3881                 9.7500                 1.7603

                      4                      5                      6
                      A                      A                      A
 Frequencies --    419.8493               431.6250               611.8572
 Red. masses --      2.5915                 1.1001                 2.2079
 Frc consts  --      0.2691                 0.1207                 0.4870
 IR Inten    --      8.6227                75.9398                 4.0988

                      7                      8                      9
                      A                      A                      A
 Frequencies --    674.7341               691.2389               801.7621
 Red. masses --      1.6829                 1.5216                 1.3472
 Frc consts  --      0.4514                 0.4284                 0.5102
 IR Inten    --     12.4465                 1.3835                59.1700

                     10                     11                     12
                      A                      A                      A
 Frequencies --    823.9664               907.4637               971.5101
 Red. masses --      1.3711                 1.7566                 1.1104
 Frc consts  --      0.5485                 0.8523                 0.6175
 IR Inten    --     48.5864                 6.0574                26.5435

                     13                     14                     15
                      A                      A                      A
 Frequencies --    986.7032              1031.7367              1119.8213
 Red. masses --      1.1121                 1.6816                 1.8840
 Frc consts  --      0.6379                 1.0547                 1.3919
 IR Inten    --     43.1315                 7.0977                 7.3596

                     16                     17                     18
                      A                      A                      A
 Frequencies --   1271.8189              1316.8193              1351.8328
 Red. masses --      2.1627                 1.2709                 1.2401
 Frc consts  --      2.0610                 1.2984                 1.3352
 IR Inten    --    122.6157                 5.0341                84.9666

                     19                     20                     21
                      A                      A                      A
 Frequencies --   1407.3572              1452.4193              1518.7848
 Red. masses --      1.2455                 1.2144                 1.6089
 Frc consts  --      1.4535                 1.5093                 2.1866
 IR Inten    --      2.3372                 8.5808                67.1009

                     22                     23                     24
                      A                      A                      A
 Frequencies --   1685.2960              1699.8940              3190.2630
 Red. masses --      4.1258                 4.1994                 1.0603
 Frc consts  --      6.9042                 7.1496                 6.3582
 IR Inten    --    175.3841               288.2647                 2.8965

                     25                     26                     27
                      A                      A                      A
 Frequencies --   3205.3167              3219.9035              3231.0328
 Red. masses --      1.0589                 1.0937                 1.0913
 Frc consts  --      6.4100                 6.6807                 6.7122
 IR Inten    --      5.0821                 8.7226                 1.7845

                     28                     29                     30
                      A                      A                      A
 Frequencies --   3305.8362              3312.9483              3641.0689
 Red. masses --      1.1160                 1.1172                 1.0772
 Frc consts  --      7.1861                 7.2245                 8.4143
 IR Inten    --      5.2518                 8.2812                34.3815

 - Thermochemistry -
 -------------------
 Temperature   298.150 Kelvin.  Pressure   1.00000 Atm.
 Atom     1 has atomic number  6 and mass  12.00000

 Molecular mass:    69.05785 amu.
 Principal axes and moments of inertia in atomic units:
                           1         2         3
     Eigenvalues --   106.01606 633.80587 731.11457
           X            0.99999  -0.00358   0.00279
           Y            0.00365   0.99966  -0.02578
           Z           -0.00269   0.02579   0.99966
 This molecule is an asymmetric top.
 Rotational symmetry number  1.
 Rotational temperatures (Kelvin)      0.81699     0.13666     0.11847
 Rotational constants (GHZ):          17.02328     2.84747     2.46848
 Zero-point vibrational energy     267718.4 (Joules/Mol)
                                   63.98624 (Kcal/Mol)
 Warning -- explicit consideration of   6 degrees of freedom as
           vibrations may cause significant error
 Vibrational temperatures:     80.79   246.67   357.64   604.07   621.01
          (Kelvin)            880.33   970.79   994.54  1153.56  1185.50
                             1305.64  1397.79  1419.65  1484.44  1611.17
                             1829.86  1894.61  1944.99  2024.87  2089.71
                             2185.19  2424.77  2445.77  4590.08  4611.74
                             4632.72  4648.74  4756.36  4766.59  5238.69

 Zero-point correction=                           0.101969 (Hartree/Particle)
 Thermal correction to Energy=                    0.108074
 Thermal correction to Enthalpy=                  0.109018
 Thermal correction to Gibbs Free Energy=         0.072624
 Sum of electronic and zero-point Energies=           -210.605335
 Sum of electronic and thermal Energies=              -210.599230
 Sum of electronic and thermal Enthalpies=            -210.598286
 Sum of electronic and thermal Free Energies=         -210.634680

                     E (Thermal)             CV                S
                      KCal/Mol        Cal/Mol-Kelvin    Cal/Mol-Kelvin
 Total                   67.817             21.062             76.597
 Electronic               0.000              0.000              0.000
 Translational            0.889              2.981             38.614
 Rotational               0.889              2.981             25.399
 Vibrational             66.040             15.100             12.583
 Vibration     1          0.596              1.975              4.588
 Vibration     2          0.626              1.878              2.420
 Vibration     3          0.662              1.765              1.741
 Vibration     4          0.783              1.427              0.892
 Vibration     5          0.793              1.401              0.853
 Vibration     6          0.971              1.007              0.430

 ## DEPERTURBED TRANSITIONS MOMENTS ##

 Electric dipole : Fundamental Bands
 ------------------------------------------------------------------------

 ## AFTER VARIATIONAL CORRECTION

 Electric dipole : Fundamental Bands
 ------------------------------------------------------------------------

 Optimization completed.
    -- Stationary point found.
 Normal termination of Gaussian 16 at Tue Apr  8 19:43:30 2025.
