 Gaussian 16, Revision C.01,
 Gaussian 16:  EM64L-G16RevC.01  3-Jul-2019

 ----------------------------------------------
 # MP2/aug-cc-pVDZ opt freq=(vibrot,anharmonic)
 ----------------------------------------------

 ----
 blah
 ----
 Symbolic Z-matrix:
 Charge =  0 Multiplicity = 1

 SCF Done:  E(RHF) =  -209.974232381     A.U. after   13 cycles
 E2 =    -0.7314016141D+00 EUMP2 =    -0.21070563399510D+03
 SCF Done:  E(RHF) =  -209.972412034     A.U. after   10 cycles
 E2 =    -0.7357261864D+00 EUMP2 =    -0.21070813822053D+03
 SCF Done:  E(RHF) =  -209.972655135     A.U. after   10 cycles
 E2 =    -0.7355835085D+00 EUMP2 =    -0.21070823864323D+03
 SCF Done:  E(RHF) =  -209.972738628     A.U. after    9 cycles
 E2 =    -0.7355051715D+00 EUMP2 =    -0.21070824379997D+03
 Optimization completed.
    -- Stationary point found.
 Normal termination of Gaussian 16 at Fri Apr  4 16:12:17 2025.

 ----------------------------------------------------------------------
 #N Geom=AllCheck Guess=TCheck SCRF=Check GenChk RMP2(FC)/Aug-CC-pVDZ F
 req
 ----------------------------------------------------------------------

 Structure from the checkpoint file:  "/scr/Gau-41377.chk"
 ----
 blah
 ----
 Charge =  0 Multiplicity = 1

                         Standard orientation:
 ---------------------------------------------------------------------
 Center     Atomic      Atomic             Coordinates (Angstroms)
 Number     Number       Type             X           Y           Z
 ---------------------------------------------------------------------
      1          6           0        2.441334    0.217607    0.000001
      2          6           0        1.226536   -0.385782   -0.000002
      3          1           0        2.547282    1.305494    0.000005
      4          1           0        3.343434   -0.392671   -0.000000
      5          7           0        0.000000    0.266447   -0.000001
      6          1           0        1.144224   -1.477093   -0.000005
      7          6           0       -1.226536   -0.385782    0.000001
      8          1           0        0.000000    1.281507   -0.000001
      9          6           0       -2.441334    0.217607   -0.000000
     10          1           0       -1.144224   -1.477093    0.000005
     11          1           0       -2.547282    1.305494   -0.000004
     12          1           0       -3.343434   -0.392671    0.000003
 ---------------------------------------------------------------------

 SCF Done:  E(RHF) =  -209.972738628     A.U. after    1 cycles
 E2 =    -0.7355051709D+00 EUMP2 =    -0.21070824379928D+03
 E2 =    -0.7355051709D+00 EUMP2 =    -0.21070824379928D+03
 SCF Done:  E(RHF) =  -209.972738484     A.U. after    7 cycles
 E2 =    -0.7355052967D+00 EUMP2 =    -0.21070824378077D+03
 E2 =    -0.7355052967D+00 EUMP2 =    -0.21070824378076D+03
 SCF Done:  E(RHF) =  -209.972738484     A.U. after    7 cycles
 E2 =    -0.7355052967D+00 EUMP2 =    -0.21070824378072D+03
 E2 =    -0.7355052967D+00 EUMP2 =    -0.21070824378072D+03
 SCF Done:  E(RHF) =  -209.972737963     A.U. after    7 cycles
 E2 =    -0.7355056393D+00 EUMP2 =    -0.21070824360232D+03
 E2 =    -0.7355056393D+00 EUMP2 =    -0.21070824360232D+03
 SCF Done:  E(RHF) =  -209.972737962     A.U. after    7 cycles
 E2 =    -0.7355056392D+00 EUMP2 =    -0.21070824360123D+03
 E2 =    -0.7355056392D+00 EUMP2 =    -0.21070824360123D+03
 SCF Done:  E(RHF) =  -209.972741473     A.U. after    8 cycles
 E2 =    -0.7355020208D+00 EUMP2 =    -0.21070824349354D+03
 E2 =    -0.7355020208D+00 EUMP2 =    -0.21070824349354D+03
 E2 =    -0.7355089743D+00 EUMP2 =    -0.21070824347947D+03
 E2 =    -0.7355089743D+00 EUMP2 =    -0.21070824347947D+03
 E2 =    -0.7355067600D+00 EUMP2 =    -0.21070824233473D+03
 E2 =    -0.7355067600D+00 EUMP2 =    -0.21070824233473D+03
 SCF Done:  E(RHF) =  -209.972668540     A.U. after    8 cycles
 E2 =    -0.7355053713D+00 EUMP2 =    -0.21070817391131D+03
 E2 =    -0.7355053713D+00 EUMP2 =    -0.21070817391131D+03
 SCF Done:  E(RHF) =  -209.972668541     A.U. after    8 cycles
 E2 =    -0.7355053704D+00 EUMP2 =    -0.21070817391134D+03
 E2 =    -0.7355053704D+00 EUMP2 =    -0.21070817391133D+03
 SCF Done:  E(RHF) =  -209.972923627     A.U. after    9 cycles
 E2 =    -0.7352470914D+00 EUMP2 =    -0.21070817071817D+03
 E2 =    -0.7352470914D+00 EUMP2 =    -0.21070817071816D+03
 SCF Done:  E(RHF) =  -209.972412407     A.U. after    9 cycles
 E2 =    -0.7357642123D+00 EUMP2 =    -0.21070817661948D+03
 E2 =    -0.7357642123D+00 EUMP2 =    -0.21070817661948D+03
 SCF Done:  E(RHF) =  -209.972664933     A.U. after    8 cycles
 E2 =    -0.7355048664D+00 EUMP2 =    -0.21070816979895D+03
 E2 =    -0.7355048664D+00 EUMP2 =    -0.21070816979895D+03
 SCF Done:  E(RHF) =  -209.972665039     A.U. after    8 cycles
 E2 =    -0.7355047593D+00 EUMP2 =    -0.21070816979827D+03
 E2 =    -0.7355047593D+00 EUMP2 =    -0.21070816979827D+03
 SCF Done:  E(RHF) =  -209.972584742     A.U. after    9 cycles
 E2 =    -0.7355847486D+00 EUMP2 =    -0.21070816949086D+03
 E2 =    -0.7355847486D+00 EUMP2 =    -0.21070816949085D+03
 SCF Done:  E(RHF) =  -209.972745220     A.U. after    9 cycles
 E2 =    -0.7354248870D+00 EUMP2 =    -0.21070817010677D+03
 E2 =    -0.7354248870D+00 EUMP2 =    -0.21070817010676D+03
 SCF Done:  E(RHF) =  -209.972314410     A.U. after    9 cycles
 E2 =    -0.7358444328D+00 EUMP2 =    -0.21070815884277D+03
 E2 =    -0.7358444328D+00 EUMP2 =    -0.21070815884277D+03
 SCF Done:  E(RHF) =  -209.972984443     A.U. after    9 cycles
 E2 =    -0.7351677416D+00 EUMP2 =    -0.21070815218490D+03
 E2 =    -0.7351677416D+00 EUMP2 =    -0.21070815218490D+03

 Alpha  occ. eigenvalues --  -15.59987 -11.29495 -11.29492 -11.22241 -11.22241
 Alpha  occ. eigenvalues --   -1.26534  -1.05001  -0.97565  -0.82634  -0.80737
 Alpha  occ. eigenvalues --   -0.68170  -0.65838  -0.60066  -0.57370  -0.54896
 Alpha  occ. eigenvalues --   -0.53364  -0.52793  -0.38263  -0.28783
 Alpha virt. eigenvalues --    0.03657   0.03996   0.04467   0.06089   0.06135
 Alpha virt. eigenvalues --    0.08613   0.08923   0.10056   0.10785   0.11549
 Alpha virt. eigenvalues --    0.12697   0.14172   0.14350   0.15931   0.16038

 Mulliken charges:
               1
     1  C    0.779177
     2  C    0.601162
     3  H   -0.385291
     4  H   -0.282296
     5  N   -0.209932
     6  H   -0.513711
     7  C    0.601162
     8  H   -0.188149
     9  C    0.779177
    10  H   -0.513711
    11  H   -0.385291
    12  H   -0.282296
 Sum of Mulliken charges =  -0.00000

 Dipole moment (field-independent basis, Debye):
    X=              0.0000    Y=              0.1696    Z=              0.0000  Tot=              0.1696
 Quadrupole moment (field-independent basis, Debye-Ang):
   XX=            -34.2911   YY=            -27.4110   ZZ=            -37.5497
   XY=             -0.0000   XZ=             -0.0000   YZ=             -0.0000

  Exact polarizability:     112.916      -0.000      54.507       0.000       0.000      46.603
 Approx polarizability:      74.094      -0.000      49.963       0.000       0.000      44.128

                      1                      2                      3
                      A                      A                      A
 Frequencies --     55.0180               171.9584               215.2702
 Red. masses --      4.9565                 1.6690                 2.6044
 Frc consts  --      0.0088                 0.0291                 0.0711
 IR Inten    --      0.2264                 0.0000                 2.5337

                      4                      5                      6
                      A                      A                      A
 Frequencies --    465.4921               466.9534               511.4254
 Red. masses --      1.0901                 2.1136                 3.7068
 Frc consts  --      0.1392                 0.2715                 0.5712
 IR Inten    --     57.9778                21.0009                 0.0001

                      7                      8                      9
                      A                      A                      A
 Frequencies --    648.2250               688.6862               795.7464
 Red. masses --      1.5981                 1.5030                 1.3696
 Frc consts  --      0.3956                 0.4200                 0.5110
 IR Inten    --      6.4186                 0.0000                 0.0000

                     10                     11                     12
                      A                      A                      A
 Frequencies --    799.9764               895.3547               963.1856
 Red. masses --      1.3702                 1.5319                 1.1044
 Frc consts  --      0.5166                 0.7235                 0.6037
 IR Inten    --    110.4746                 0.7807                 0.0000

                     13                     14                     15
                      A                      A                      A
 Frequencies --    988.5231              1006.7611              1261.3983
 Red. masses --      1.1093                 1.3705                 2.7707
 Frc consts  --      0.6387                 0.8184                 2.5974
 IR Inten    --     64.9322                 0.1871               238.5580

                     16                     17                     18
                      A                      A                      A
 Frequencies --   1269.4307              1310.6973              1333.4838
 Red. masses --      3.5139                 1.2045                 1.2043
 Frc consts  --      3.3362                 1.2191                 1.2618
 IR Inten    --      1.4395                15.6473                 4.7186

                     19                     20                     21
                      A                      A                      A
 Frequencies --   1361.3469              1441.1850              1502.4676
 Red. masses --      1.2355                 1.1815                 1.4098
 Frc consts  --      1.3491                 1.4459                 1.8750
 IR Inten    --     55.6729                 1.8059                 7.9475

                     22                     23                     24
                      A                      A                      A
 Frequencies --   1688.8893              1717.3962              3193.3119
 Red. masses --      4.4342                 4.1946                 1.0594
 Frc consts  --      7.4519                 7.2891                 6.3647
 IR Inten    --      0.3117               706.1060                 3.0530

                     25                     26                     27
                      A                      A                      A
 Frequencies --   3193.5442              3215.8691              3221.4287
 Red. masses --      1.0599                 1.0930                 1.0934
 Frc consts  --      6.3689                 6.6601                 6.6854
 IR Inten    --      7.3338                 2.8503                 5.8071

                     28                     29                     30
                      A                      A                      A
 Frequencies --   3309.1881              3309.1960              3614.0451
 Red. masses --      1.1161                 1.1160                 1.0762
 Frc consts  --      7.2013                 7.2005                 8.2821
 IR Inten    --      0.9786                 9.4222                18.6897

 - Thermochemistry -
 -------------------
 Temperature   298.150 Kelvin.  Pressure   1.00000 Atm.
 Atom     1 has atomic number  6 and mass  12.00000

 Molecular mass:    69.05785 amu.
 Principal axes and moments of inertia in atomic units:
                           1         2         3
     Eigenvalues --    55.35539 776.34231 831.69770
           X            1.00000   0.00000  -0.00000
           Y           -0.00000   1.00000   0.00000
           Z            0.00000  -0.00000   1.00000
 This molecule is an asymmetric top.
 Rotational symmetry number  1.
 Rotational temperatures (Kelvin)      1.56469     0.11157     0.10414
 Rotational constants (GHZ):          32.60281     2.32467     2.16995
 Zero-point vibrational energy     266859.7 (Joules/Mol)
                                   63.78099 (Kcal/Mol)
 Warning -- explicit consideration of   6 degrees of freedom as
           vibrations may cause significant error
 Vibrational temperatures:     79.16   247.41   309.73   669.74   671.84
          (Kelvin)            735.83   932.65   990.87  1144.90  1150.99
                             1288.22  1385.81  1422.26  1448.50  1814.87
                             1826.43  1885.80  1918.59  1958.67  2073.54
                             2161.72  2429.94  2470.95  4594.46  4594.80
                             4626.92  4634.92  4761.18  4761.19  5199.80

 Zero-point correction=                           0.101641 (Hartree/Particle)
 Thermal correction to Energy=                    0.107811
 Thermal correction to Enthalpy=                  0.108755
 Thermal correction to Gibbs Free Energy=         0.072366
 Sum of electronic and zero-point Energies=           -210.606602
 Sum of electronic and thermal Energies=              -210.600433
 Sum of electronic and thermal Enthalpies=            -210.599489
 Sum of electronic and thermal Free Energies=         -210.635878

                     E (Thermal)             CV                S
                      KCal/Mol        Cal/Mol-Kelvin    Cal/Mol-Kelvin
 Total                   67.652             21.250             76.587
 Electronic               0.000              0.000              0.000
 Translational            0.889              2.981             38.614
 Rotational               0.889              2.981             25.083
 Vibrational             65.875             15.288             12.890
 Vibration     1          0.596              1.976              4.628
 Vibration     2          0.626              1.877              2.414
 Vibration     3          0.645              1.818              1.999
 Vibration     4          0.823              1.327              0.750
 Vibration     5          0.824              1.323              0.746
 Vibration     6          0.867              1.225              0.630

 ## DEPERTURBED TRANSITIONS MOMENTS ##

 Electric dipole : Fundamental Bands
 ------------------------------------------------------------------------

 ## AFTER VARIATIONAL CORRECTION

 Electric dipole : Fundamental Bands
 ------------------------------------------------------------------------

 Optimization completed.
    -- Stationary point found.
 Normal termination of Gaussian 16 at Fri Apr  4 19:08:58 2025.
