 Gaussian 16, Revision C.01,
 Gaussian 16:  EM64L-G16RevC.01  3-Jul-2019

 ----------------------------------------------
 # MP2/aug-cc-pVDZ opt freq=(vibrot,anharmonic)
 ----------------------------------------------

 ----
 blah
 ----
 Symbolic Z-matrix:
 Charge =  0 Multiplicity = 1

 SCF Done:  E(RHF) =  -209.967639660     A.U. after   13 cycles
 E2 =    -0.7334791650D+00 EUMP2 =    -0.21070111882459D+03
 SCF Done:  E(RHF) =  -209.964388921     A.U. after   12 cycles
 E2 =    -0.7400046398D+00 EUMP2 =    -0.21070439356037D+03
 SCF Done:  E(RHF) =  -209.965588005     A.U. after   11 cycles
 E2 =    -0.7396666579D+00 EUMP2 =    -0.21070525466271D+03
 SCF Done:  E(RHF) =  -209.966857398     A.U. after   11 cycles
 E2 =    -0.7386810575D+00 EUMP2 =    -0.21070553845519D+03
 SCF Done:  E(RHF) =  -209.966792229     A.U. after   11 cycles
 E2 =    -0.7388513968D+00 EUMP2 =    -0.21070564362580D+03
 SCF Done:  E(RHF) =  -209.966838429     A.U. after   11 cycles
 E2 =    -0.7388539186D+00 EUMP2 =    -0.21070569234773D+03
 SCF Done:  E(RHF) =  -209.966927221     A.U. after   11 cycles
 E2 =    -0.7387897299D+00 EUMP2 =    -0.21070571695102D+03
 SCF Done:  E(RHF) =  -209.966997479     A.U. after   11 cycles
 E2 =    -0.7387394983D+00 EUMP2 =    -0.21070573697743D+03
 SCF Done:  E(RHF) =  -209.966976437     A.U. after   10 cycles
 E2 =    -0.7387674686D+00 EUMP2 =    -0.21070574390574D+03
 SCF Done:  E(RHF) =  -209.966991328     A.U. after   10 cycles
 E2 =    -0.7387547958D+00 EUMP2 =    -0.21070574612342D+03
 E2 =    -0.7387688329D+00 EUMP2 =    -0.21070574729952D+03
 E2 =    -0.7387696565D+00 EUMP2 =    -0.21070574889561D+03
 E2 =    -0.7387698037D+00 EUMP2 =    -0.21070574949517D+03
 E2 =    -0.7387853370D+00 EUMP2 =    -0.21070574965654D+03
 E2 =    -0.7387779701D+00 EUMP2 =    -0.21070574967600D+03
 E2 =    -0.7387801838D+00 EUMP2 =    -0.21070574970457D+03
 E2 =    -0.7387817420D+00 EUMP2 =    -0.21070574970204D+03
 E2 =    -0.7387835492D+00 EUMP2 =    -0.21070574947507D+03
 E2 =    -0.7387821827D+00 EUMP2 =    -0.21070574969523D+03
 E2 =    -0.7387813453D+00 EUMP2 =    -0.21070574970541D+03
 Optimization completed.
    -- Stationary point found.
 Normal termination of Gaussian 16 at Fri Apr  4 14:51:28 2025.

 ----------------------------------------------------------------------
 #N Geom=AllCheck Guess=TCheck SCRF=Check GenChk RMP2(FC)/Aug-CC-pVDZ F
 req
 ----------------------------------------------------------------------

 Structure from the checkpoint file:  "/scr/Gau-95557.chk"
 ----
 blah
 ----
 Charge =  0 Multiplicity = 1

                         Standard orientation:
 ---------------------------------------------------------------------
 Center     Atomic      Atomic             Coordinates (Angstroms)
 Number     Number       Type             X           Y           Z
 ---------------------------------------------------------------------
      1          6           0        0.000011    1.623342   -0.892029
      2          6           0        0.000000    1.263704    0.418662
      3          1           0        0.000023    0.929410   -1.726490
      4          1           0        0.000010    2.690530   -1.116806
      5          7           0        0.000000    0.000000    1.000964
      6          1           0       -0.000009    2.055420    1.174353
      7          6           0       -0.000000   -1.263704    0.418662
      8          1           0        0.000000    0.000000    2.011535
      9          6           0       -0.000011   -1.623342   -0.892029
     10          1           0        0.000009   -2.055420    1.174353
     11          1           0       -0.000023   -0.929410   -1.726490
     12          1           0       -0.000010   -2.690530   -1.116806
 ---------------------------------------------------------------------

 SCF Done:  E(RHF) =  -209.966897796     A.U. after    8 cycles
 E2 =    -0.7387816043D+00 EUMP2 =    -0.21070567940018D+03
 E2 =    -0.7387816043D+00 EUMP2 =    -0.21070567940018D+03
 SCF Done:  E(RHF) =  -209.966897796     A.U. after    8 cycles
 E2 =    -0.7387816042D+00 EUMP2 =    -0.21070567940017D+03
 E2 =    -0.7387816042D+00 EUMP2 =    -0.21070567940017D+03
 SCF Done:  E(RHF) =  -209.966558856     A.U. after    9 cycles
 E2 =    -0.7391208709D+00 EUMP2 =    -0.21070567972717D+03
 E2 =    -0.7391208709D+00 EUMP2 =    -0.21070567972717D+03
 SCF Done:  E(RHF) =  -209.967235859     A.U. after    9 cycles
 E2 =    -0.7384424968D+00 EUMP2 =    -0.21070567835606D+03
 E2 =    -0.7384424968D+00 EUMP2 =    -0.21070567835606D+03
 SCF Done:  E(RHF) =  -209.966893541     A.U. after    8 cycles
 E2 =    -0.7387810857D+00 EUMP2 =    -0.21070567462701D+03
 E2 =    -0.7387810857D+00 EUMP2 =    -0.21070567462700D+03
 SCF Done:  E(RHF) =  -209.966893541     A.U. after    8 cycles
 E2 =    -0.7387810857D+00 EUMP2 =    -0.21070567462700D+03
 E2 =    -0.7387810857D+00 EUMP2 =    -0.21070567462700D+03
 SCF Done:  E(RHF) =  -209.966781180     A.U. after    9 cycles
 E2 =    -0.7388928388D+00 EUMP2 =    -0.21070567401876D+03
 E2 =    -0.7388928388D+00 EUMP2 =    -0.21070567401876D+03
 SCF Done:  E(RHF) =  -209.967002189     A.U. after    9 cycles
 E2 =    -0.7386705048D+00 EUMP2 =    -0.21070567269391D+03
 E2 =    -0.7386705048D+00 EUMP2 =    -0.21070567269391D+03
 SCF Done:  E(RHF) =  -209.967210581     A.U. after    9 cycles
 E2 =    -0.7384460151D+00 EUMP2 =    -0.21070565659587D+03
 E2 =    -0.7384460151D+00 EUMP2 =    -0.21070565659587D+03
 SCF Done:  E(RHF) =  -209.966542503     A.U. after    9 cycles
 E2 =    -0.7391181320D+00 EUMP2 =    -0.21070566063467D+03
 E2 =    -0.7391181320D+00 EUMP2 =    -0.21070566063467D+03

 Alpha  occ. eigenvalues --  -15.60556 -11.29086 -11.29084 -11.22133 -11.22133
 Alpha  occ. eigenvalues --   -1.25973  -1.03882  -0.98994  -0.84218  -0.74370
 Alpha  occ. eigenvalues --   -0.73165  -0.63685  -0.60048  -0.56445  -0.55852
 Alpha  occ. eigenvalues --   -0.54616  -0.49673  -0.37121  -0.29464
 Alpha virt. eigenvalues --    0.02891   0.04353   0.04632   0.05818   0.06596
 Alpha virt. eigenvalues --    0.08617   0.09809   0.10323   0.11686   0.12230
 Alpha virt. eigenvalues --    0.12238   0.13869   0.14512   0.14711   0.15846

 Mulliken charges:
               1
     1  C    0.670669
     2  C    0.623580
     3  H   -0.364064
     4  H   -0.302949
     5  N   -0.284594
     6  H   -0.465835
     7  C    0.623580
     8  H   -0.038206
     9  C    0.670669
    10  H   -0.465835
    11  H   -0.364064
    12  H   -0.302949
 Sum of Mulliken charges =  -0.00000

 Dipole moment (field-independent basis, Debye):
    X=             -0.0000    Y=             -0.0000    Z=              1.9332  Tot=              1.9332
 Quadrupole moment (field-independent basis, Debye-Ang):
   XX=            -37.7289   YY=            -30.7493   ZZ=            -26.9012
   XY=             -0.0000   XZ=              0.0000   YZ=              0.0000

  Exact polarizability:      46.923       0.000      80.069       0.000       0.000      69.573
 Approx polarizability:      44.757       0.000      56.009       0.000       0.000      65.367

                      1                      2                      3
                      A                      B                      A
 Frequencies --     36.4541               188.7734               286.8925
 Red. masses --      1.6616                 1.7873                 3.7628
 Frc consts  --      0.0013                 0.0375                 0.1825
 IR Inten    --      0.0000                10.0794                 0.4926

                      4                      5                      6
                      B                      B                      A
 Frequencies --    369.4496               438.4420               669.9778
 Red. masses --      2.3852                 1.0971                 1.6250
 Frc consts  --      0.1918                 0.1243                 0.4298
 IR Inten    --      0.8816                60.9785                 0.0000

                      7                      8                      9
                      B                      A                      A
 Frequencies --    677.1993               712.4492               790.2523
 Red. masses --      2.0074                 1.8668                 1.2919
 Frc consts  --      0.5424                 0.5583                 0.4753
 IR Inten    --     13.5449                 0.5116                 0.0000

                     10                     11                     12
                      B                      A                      A
 Frequencies --    811.5035               905.1402               969.7842
 Red. masses --      1.2660                 3.7736                 1.1235
 Frc consts  --      0.4912                 1.8215                 0.6225
 IR Inten    --    130.0184                17.3402                 0.0000

                     13                     14                     15
                      B                      B                      A
 Frequencies --    974.9674               983.6138              1140.3103
 Red. masses --      1.0780                 1.4933                 1.8968
 Frc consts  --      0.6037                 0.8512                 1.4531
 IR Inten    --     38.5206                 2.7753                 4.2235

                     16                     17                     18
                      B                      A                      B
 Frequencies --   1217.4593              1349.7345              1374.9594
 Red. masses --      1.9370                 1.2380                 1.1046
 Frc consts  --      1.6916                 1.3289                 1.2303
 IR Inten    --     26.3138                 2.8634                13.6069

                     19                     20                     21
                      B                      A                      B
 Frequencies --   1430.8046              1483.0420              1568.8755
 Red. masses --      1.2105                 1.1819                 1.8111
 Frc consts  --      1.4601                 1.5315                 2.6264
 IR Inten    --     16.2730                 2.5708               193.0192

                     22                     23                     24
                      B                      A                      B
 Frequencies --   1683.4419              1696.2789              3206.3925
 Red. masses --      4.0560                 4.1109                 1.0787
 Frc consts  --      6.7724                 6.9692                 6.5339
 IR Inten    --    218.6208                87.3049                11.9396

                     25                     26                     27
                      A                      B                      A
 Frequencies --   3207.9154              3225.5179              3233.7099
 Red. masses --      1.0841                 1.0728                 1.0719
 Frc consts  --      6.5731                 6.5764                 6.6040
 IR Inten    --      8.1930                 4.2918                 0.0652

                     28                     29                     30
                      B                      A                      A
 Frequencies --   3333.1593              3361.2519              3670.9793
 Red. masses --      1.1169                 1.1077                 1.0779
 Frc consts  --      7.3110                 7.3732                 8.5583
 IR Inten    --     10.3427                 0.5094                57.8719

 - Thermochemistry -
 -------------------
 Temperature   298.150 Kelvin.  Pressure   1.00000 Atm.
 Atom     1 has atomic number  6 and mass  12.00000

 Molecular mass:    69.05785 amu.
 Principal axes and moments of inertia in atomic units:
                           1         2         3
     Eigenvalues --   188.15473 451.45543 639.61016
           X            0.00000   0.00000   1.00000
           Y            1.00000   0.00000  -0.00000
           Z           -0.00000   1.00000  -0.00000
 This molecule is an asymmetric top.
 Rotational symmetry number  2.
 Rotational temperatures (Kelvin)      0.46033     0.19185     0.13542
 Rotational constants (GHZ):           9.59179     3.99761     2.82163
 Zero-point vibrational energy     269152.2 (Joules/Mol)
                                   64.32892 (Kcal/Mol)
 Warning -- explicit consideration of   5 degrees of freedom as
           vibrations may cause significant error
 Vibrational temperatures:     52.45   271.60   412.77   531.56   630.82
          (Kelvin)            963.95   974.34  1025.06  1137.00  1167.57
                             1302.29  1395.30  1402.76  1415.20  1640.65
                             1751.65  1941.97  1978.26  2058.61  2133.77
                             2257.26  2422.10  2440.57  4613.28  4615.47
                             4640.80  4652.59  4795.67  4836.09  5281.72

 Zero-point correction=                           0.102515 (Hartree/Particle)
 Thermal correction to Energy=                    0.108600
 Thermal correction to Enthalpy=                  0.109544
 Thermal correction to Gibbs Free Energy=         0.073513
 Sum of electronic and zero-point Energies=           -210.603235
 Sum of electronic and thermal Energies=              -210.597149
 Sum of electronic and thermal Enthalpies=            -210.596205
 Sum of electronic and thermal Free Energies=         -210.632237

                     E (Thermal)             CV                S
                      KCal/Mol        Cal/Mol-Kelvin    Cal/Mol-Kelvin
 Total                   68.148             20.981             75.835
 Electronic               0.000              0.000              0.000
 Translational            0.889              2.981             38.614
 Rotational               0.889              2.981             24.122
 Vibrational             66.370             15.020             13.099
 Vibration     1          0.594              1.982              5.443
 Vibration     2          0.633              1.855              2.240
 Vibration     3          0.684              1.698              1.492
 Vibration     4          0.742              1.535              1.082
 Vibration     5          0.799              1.386              0.832

 ## DEPERTURBED TRANSITIONS MOMENTS ##

 Electric dipole : Fundamental Bands
 ------------------------------------------------------------------------

 ## AFTER VARIATIONAL CORRECTION

 Electric dipole : Fundamental Bands
 ------------------------------------------------------------------------

 Optimization completed.
    -- Stationary point found.
 Normal termination of Gaussian 16 at Fri Apr  4 17:47:19 2025.
