 Gaussian 16, Revision C.01,
 Gaussian 16:  EM64L-G16RevC.01  3-Jul-2019

 ----------------------------------------------
 # MP2/aug-cc-pVDZ opt freq=(vibrot,anharmonic)
 ----------------------------------------------

 ----
 blah
 ----
 Symbolic Z-matrix:
 Charge =  0 Multiplicity = 1

 SCF Done:  E(RHF) =  -265.655336299     A.U. after   14 cycles
 E2 =    -0.7989026927D+00 EUMP2 =    -0.26645423899130D+03
 SCF Done:  E(RHF) =  -265.654143040     A.U. after   12 cycles
 E2 =    -0.8018699294D+00 EUMP2 =    -0.26645601296960D+03
 SCF Done:  E(RHF) =  -265.653976481     A.U. after   12 cycles
 E2 =    -0.8021453213D+00 EUMP2 =    -0.26645612180196D+03
 SCF Done:  E(RHF) =  -265.654007696     A.U. after   12 cycles
 E2 =    -0.8021150308D+00 EUMP2 =    -0.26645612272641D+03
 SCF Done:  E(RHF) =  -265.653884381     A.U. after   12 cycles
 E2 =    -0.8021793169D+00 EUMP2 =    -0.26645606369819D+03
 SCF Done:  E(RHF) =  -265.654126333     A.U. after   12 cycles
 E2 =    -0.8020061855D+00 EUMP2 =    -0.26645613251803D+03
 SCF Done:  E(RHF) =  -265.654055571     A.U. after   10 cycles
 E2 =    -0.8020780933D+00 EUMP2 =    -0.26645613366396D+03
 Optimization completed.
    -- Stationary point found.
 Normal termination of Gaussian 16 at Sat Mar 22 07:58:15 2025.

 ----------------------------------------------------------------------
 #N Geom=AllCheck Guess=TCheck SCRF=Check GenChk RMP2(FC)/Aug-CC-pVDZ F
 req
 ----------------------------------------------------------------------

 Structure from the checkpoint file:  "/scr/Gau-92699.chk"
 ----
 blah
 ----
 Charge =  0 Multiplicity = 1

                         Standard orientation:
 ---------------------------------------------------------------------
 Center     Atomic      Atomic             Coordinates (Angstroms)
 Number     Number       Type             X           Y           Z
 ---------------------------------------------------------------------
      1          6           0        1.164981    0.504982   -0.000000
      2          6           0       -0.086759    1.040900   -0.000011
      3          1           0        2.043723    1.160155    0.000002
      4          8           0        1.405275   -0.830826    0.000002
      5          6           0       -1.349931    0.283213    0.000010
      6          1           0        2.362104   -0.974287    0.000021
      7          8           0       -1.450491   -0.945583   -0.000008
      8          1           0       -0.146589    2.131947   -0.000010
      9          1           0       -2.267253    0.918884    0.000044
 ---------------------------------------------------------------------

 SCF Done:  E(RHF) =  -265.654055571     A.U. after    1 cycles
 E2 =    -0.8020780939D+00 EUMP2 =    -0.26645613366457D+03
 E2 =    -0.8020780939D+00 EUMP2 =    -0.26645613366457D+03
 SCF Done:  E(RHF) =  -265.654054866     A.U. after   10 cycles
 E2 =    -0.8020786774D+00 EUMP2 =    -0.26645613354349D+03
 E2 =    -0.8020786774D+00 EUMP2 =    -0.26645613354349D+03
 SCF Done:  E(RHF) =  -265.654054869     A.U. after   10 cycles
 E2 =    -0.8020786779D+00 EUMP2 =    -0.26645613354679D+03
 E2 =    -0.8020786779D+00 EUMP2 =    -0.26645613354679D+03
 E2 =    -0.8020704687D+00 EUMP2 =    -0.26645613340839D+03
 E2 =    -0.8020704687D+00 EUMP2 =    -0.26645613340839D+03
 E2 =    -0.8020861384D+00 EUMP2 =    -0.26645613345538D+03
 E2 =    -0.8020861384D+00 EUMP2 =    -0.26645613345538D+03
 E2 =    -0.8020796792D+00 EUMP2 =    -0.26645613291168D+03
 E2 =    -0.8020796792D+00 EUMP2 =    -0.26645613291168D+03
 E2 =    -0.8020796771D+00 EUMP2 =    -0.26645613292393D+03
 SCF Done:  E(RHF) =  -265.653929130     A.U. after   11 cycles
 E2 =    -0.8021843489D+00 EUMP2 =    -0.26645611347848D+03
 E2 =    -0.8021843489D+00 EUMP2 =    -0.26645611347848D+03
 SCF Done:  E(RHF) =  -265.654139405     A.U. after   11 cycles
 E2 =    -0.8019741621D+00 EUMP2 =    -0.26645611356686D+03
 E2 =    -0.8019741621D+00 EUMP2 =    -0.26645611356686D+03
 SCF Done:  E(RHF) =  -265.654177222     A.U. after   10 cycles
 E2 =    -0.8018960072D+00 EUMP2 =    -0.26645607322926D+03
 E2 =    -0.8018960072D+00 EUMP2 =    -0.26645607322926D+03
 SCF Done:  E(RHF) =  -265.653812626     A.U. after   10 cycles
 E2 =    -0.8022628966D+00 EUMP2 =    -0.26645607552259D+03
 E2 =    -0.8022628966D+00 EUMP2 =    -0.26645607552258D+03
 SCF Done:  E(RHF) =  -265.653890820     A.U. after   10 cycles
 E2 =    -0.8021754626D+00 EUMP2 =    -0.26645606628246D+03
 E2 =    -0.8021754626D+00 EUMP2 =    -0.26645606628246D+03
 SCF Done:  E(RHF) =  -265.654081085     A.U. after   10 cycles
 E2 =    -0.8019821450D+00 EUMP2 =    -0.26645606322980D+03
 E2 =    -0.8019821450D+00 EUMP2 =    -0.26645606322980D+03
 SCF Done:  E(RHF) =  -265.654178920     A.U. after   10 cycles
 E2 =    -0.8018823979D+00 EUMP2 =    -0.26645606131775D+03
 E2 =    -0.8018823979D+00 EUMP2 =    -0.26645606131775D+03
 SCF Done:  E(RHF) =  -265.653790190     A.U. after   10 cycles
 E2 =    -0.8022738239D+00 EUMP2 =    -0.26645606401381D+03
 E2 =    -0.8022738239D+00 EUMP2 =    -0.26645606401381D+03
 SCF Done:  E(RHF) =  -265.653454098     A.U. after   10 cycles
 E2 =    -0.8025832045D+00 EUMP2 =    -0.26645603730282D+03
 E2 =    -0.8025832045D+00 EUMP2 =    -0.26645603730282D+03
 SCF Done:  E(RHF) =  -265.654458069     A.U. after   10 cycles
 E2 =    -0.8015748641D+00 EUMP2 =    -0.26645603293277D+03
 E2 =    -0.8015748641D+00 EUMP2 =    -0.26645603293277D+03

 Alpha  occ. eigenvalues --  -20.62797 -20.55066 -11.35120 -11.33727 -11.24509
 Alpha  occ. eigenvalues --   -1.43623  -1.36596  -1.06419  -0.89595  -0.77856
 Alpha  occ. eigenvalues --   -0.76062  -0.65384  -0.64412  -0.60120  -0.57547
 Alpha  occ. eigenvalues --   -0.56671  -0.51478  -0.41457  -0.36159
 Alpha virt. eigenvalues --    0.02263   0.03876   0.04961   0.06647   0.06960
 Alpha virt. eigenvalues --    0.10007   0.10920   0.12706   0.13168   0.14202
 Alpha virt. eigenvalues --    0.14511   0.14998   0.15271   0.16709   0.17915

 Mulliken charges:
               1
     1  C    0.866024
     2  C    0.395596
     3  H   -0.367815
     4  O   -0.513008
     5  C    0.597424
     6  H    0.160128
     7  O   -0.531093
     8  H   -0.468930
     9  H   -0.138326
 Sum of Mulliken charges =  -0.00000

 Dipole moment (field-independent basis, Debye):
    X=              3.4425    Y=              2.6984    Z=              0.0001  Tot=              4.3740
 Quadrupole moment (field-independent basis, Debye-Ang):
   XX=            -22.3419   YY=            -30.6941   ZZ=            -31.3535
   XY=             -4.3386   XZ=              0.0000   YZ=             -0.0000

  Exact polarizability:      64.749      -2.575      50.720      -0.000       0.000      31.909
 Approx polarizability:      47.669      -2.026      43.226       0.000       0.000      30.877

                      1                      2                      3
                      A                      A                      A
 Frequencies --    133.8868               186.0315               332.1686
 Red. masses --      2.6086                 8.3672                 1.7603
 Frc consts  --      0.0276                 0.1706                 0.1144
 IR Inten    --      4.0085                 3.3712                88.9480

                      4                      5                      6
                      A                      A                      A
 Frequencies --    442.2346               492.4012               772.4390
 Red. masses --      6.6989                 1.3595                 1.2778
 Frc consts  --      0.7719                 0.1942                 0.4492
 IR Inten    --     18.9539                30.6069                39.7046

                      7                      8                      9
                      A                      A                      A
 Frequencies --    858.7169               933.9168               934.1147
 Red. masses --      5.4865                 1.3417                 3.6908
 Frc consts  --      2.3837                 0.6895                 1.8974
 IR Inten    --     19.8257                 0.1243                73.1738

                     10                     11                     12
                      A                      A                      A
 Frequencies --   1005.2035              1099.0078              1267.5045
 Red. masses --      1.6831                 1.7423                 1.1024
 Frc consts  --      1.0020                 1.2399                 1.0435
 IR Inten    --      1.9194                21.7516                14.5497

                     13                     14                     15
                      A                      A                      A
 Frequencies --   1300.0866              1413.0562              1451.5704
 Red. masses --      1.6932                 1.1872                 1.6573
 Frc consts  --      1.6862                 1.3967                 2.0574
 IR Inten    --    222.7390                 2.2523                 9.9985

                     16                     17                     18
                      A                      A                      A
 Frequencies --   1672.5629              1726.5525              2961.7637
 Red. masses --      8.3521                 5.2556                 1.0837
 Frc consts  --     13.7661                 9.2307                 5.6010
 IR Inten    --    237.8298               144.3661               144.8613

                     19                     20                     21
                      A                      A                      A
 Frequencies --   3193.0800              3241.1565              3818.2141
 Red. masses --      1.0899                 1.0945                 1.0670
 Frc consts  --      6.5471                 6.7742                 9.1654
 IR Inten    --      7.5117                 6.0770               133.0727

 - Thermochemistry -
 -------------------
 Temperature   298.150 Kelvin.  Pressure   1.00000 Atm.
 Atom     1 has atomic number  6 and mass  12.00000

 Molecular mass:    72.02113 amu.
 Principal axes and moments of inertia in atomic units:
                           1         2         3
     Eigenvalues --   178.18640 423.29846 601.48485
           X            0.99948  -0.03235  -0.00000
           Y            0.03235   0.99948   0.00000
           Z            0.00000  -0.00000   1.00000
 This molecule is an asymmetric top.
 Rotational symmetry number  1.
 Rotational temperatures (Kelvin)      0.48609     0.20462     0.14400
 Rotational constants (GHZ):          10.12839     4.26352     3.00048
 Zero-point vibrational energy     174868.1 (Joules/Mol)
                                   41.79449 (Kcal/Mol)
 Warning -- explicit consideration of   5 degrees of freedom as
           vibrations may cause significant error
 Vibrational temperatures:    192.63   267.66   477.92   636.28   708.46
          (Kelvin)           1111.37  1235.50  1343.70  1343.98  1446.26
                             1581.23  1823.66  1870.53  2033.07  2088.49
                             2406.44  2484.12  4261.32  4594.13  4663.30
                             5493.56

 Zero-point correction=                           0.066604 (Hartree/Particle)
 Thermal correction to Energy=                    0.071920
 Thermal correction to Enthalpy=                  0.072864
 Thermal correction to Gibbs Free Energy=         0.038248
 Sum of electronic and zero-point Energies=           -266.389530
 Sum of electronic and thermal Energies=              -266.384214
 Sum of electronic and thermal Enthalpies=            -266.383270
 Sum of electronic and thermal Free Energies=         -266.417886

                     E (Thermal)             CV                S
                      KCal/Mol        Cal/Mol-Kelvin    Cal/Mol-Kelvin
 Total                   45.130             17.392             72.857
 Electronic               0.000              0.000              0.000
 Translational            0.889              2.981             38.740
 Rotational               0.889              2.981             25.320
 Vibrational             43.353             11.430              8.797
 Vibration     1          0.613              1.919              2.889
 Vibration     2          0.632              1.859              2.267
 Vibration     3          0.714              1.611              1.250
 Vibration     4          0.802              1.378              0.820
 Vibration     5          0.848              1.267              0.677

 ## DEPERTURBED TRANSITIONS MOMENTS ##

 Electric dipole : Fundamental Bands
 ------------------------------------------------------------------------

 ## AFTER VARIATIONAL CORRECTION

 Electric dipole : Fundamental Bands
 ------------------------------------------------------------------------

 Optimization completed.
    -- Stationary point found.
 Normal termination of Gaussian 16 at Sat Mar 22 09:08:01 2025.
