 Gaussian 16, Revision A.03,
 Gaussian 16:  ES64L-G16RevA.03 25-Dec-2016

 -------------------------------------------
 # MP2/aug-cc-pVDZ opt=z-matrix freq pop=NBO
 -------------------------------------------

 ----
 blah
 ----
 Symbolic Z-matrix:
 Charge =  0 Multiplicity = 1

 SCF Done:  E(RHF) =  -152.869705583     A.U. after   13 cycles
 E2 =    -0.4862653167D+00 EUMP2 =    -0.15335597089982D+03
 SCF Done:  E(RHF) =  -152.911229789     A.U. after   12 cycles
 E2 =    -0.4830224653D+00 EUMP2 =    -0.15339425225417D+03
 SCF Done:  E(RHF) =  -152.919370859     A.U. after   12 cycles
 E2 =    -0.4806252026D+00 EUMP2 =    -0.15339999606116D+03
 SCF Done:  E(RHF) =  -152.917188100     A.U. after   11 cycles
 E2 =    -0.4833637098D+00 EUMP2 =    -0.15340055180985D+03
 SCF Done:  E(RHF) =  -152.917999854     A.U. after   10 cycles
 E2 =    -0.4827189365D+00 EUMP2 =    -0.15340071879065D+03
 SCF Done:  E(RHF) =  -152.917909124     A.U. after    9 cycles
 E2 =    -0.4828164606D+00 EUMP2 =    -0.15340072558488D+03
 SCF Done:  E(RHF) =  -152.917868825     A.U. after    8 cycles
 E2 =    -0.4828579793D+00 EUMP2 =    -0.15340072680388D+03
 Optimization completed.
    -- Stationary point found.
 Normal termination of Gaussian 16 at Mon Jun 20 14:47:13 2022.

 ----------------------------------------------------------------------
 #N Geom=AllCheck Guess=TCheck SCRF=Check GenChk RMP2(FC)/Aug-CC-pVDZ F
 req
 ----------------------------------------------------------------------

 Structure from the checkpoint file:  "/tmp/Gau-28574.chk"
 ----
 blah
 ----
 Charge =  0 Multiplicity = 1

                         Standard orientation:
 ---------------------------------------------------------------------
 Center     Atomic      Atomic             Coordinates (Angstroms)
 Number     Number       Type             X           Y           Z
 ---------------------------------------------------------------------
      1          8           0       -1.205769   -0.210993   -0.000000
      2          6           0        0.000000    0.447815    0.000000
      3          6           0        1.226231   -0.115244    0.000000
      4          1           0       -1.034710   -1.165150   -0.000000
      5          1           0       -0.151099    1.529555    0.000000
      6          1           0        1.368398   -1.199499   -0.000000
      7          1           0        2.106182    0.527611    0.000000
 ---------------------------------------------------------------------

 SCF Done:  E(RHF) =  -152.917868825     A.U. after    1 cycles
 E2 =    -0.4828579800D+00 EUMP2 =    -0.15340072680453D+03
 E2 =    -0.4828579800D+00 EUMP2 =    -0.15340072680453D+03

 The electronic state is 1-A'.
 Alpha  occ. eigenvalues --  -20.60450 -11.31436 -11.23123  -1.40456  -1.02155
 Alpha  occ. eigenvalues --   -0.83118  -0.67953  -0.66670  -0.57687  -0.54855
 Alpha  occ. eigenvalues --   -0.54261  -0.34995
 Alpha virt. eigenvalues --    0.03697   0.04521   0.05221   0.07069   0.11087
 Alpha virt. eigenvalues --    0.11845   0.12124   0.14018   0.15040   0.17421
 Alpha virt. eigenvalues --    0.18119   0.20388   0.21608   0.22109   0.25149

 Mulliken charges:
               1
     1  O   -0.677303
     2  C    0.826907
     3  C    0.446868
     4  H    0.160015
     5  H   -0.227220
     6  H   -0.290582
     7  H   -0.238684
 Sum of Mulliken charges =  -0.00000

 Dipole moment (field-independent basis, Debye):
    X=              0.7196    Y=             -0.7612    Z=              0.0000  Tot=              1.0475
 Quadrupole moment (field-independent basis, Debye-Ang):
   XX=            -20.6167   YY=            -14.3082   ZZ=            -21.5351
   XY=              1.0975   XZ=             -0.0000   YZ=              0.0000

  Exact polarizability:  41.476  -1.702  31.346   0.000  -0.000  25.558
 Approx polarizability:  32.843  -2.804  27.152   0.000   0.000  23.051

 Summary of Natural Population Analysis:

                                       Natural Population
                Natural  -----------------------------------------------
    Atom  No    Charge         Core      Valence    Rydberg      Total
 -----------------------------------------------------------------------
      O    1   -0.77587      1.99980     6.74896    0.02711     8.77587
      C    2    0.25101      1.99900     3.71894    0.03105     5.74899
      C    3   -0.56101      1.99918     4.53765    0.02418     6.56101
      H    4    0.49166      0.00000     0.50174    0.00659     0.50834
      H    5    0.18563      0.00000     0.80950    0.00487     0.81437
      H    6    0.19437      0.00000     0.80041    0.00522     0.80563
      H    7    0.21421      0.00000     0.78107    0.00472     0.78579
 =======================================================================
   * Total *    0.00000      5.99798    17.89828    0.10375    24.00000

                      1                      2                      3
                     A"                     A'                     A"
 Frequencies --    441.0902               482.1224               706.5082
 Red. masses --      1.1286                 2.0703                 1.5223
 Frc consts  --      0.1294                 0.2835                 0.4477
 IR Inten    --     89.8822                12.0168                 1.5410

                      4                      5                      6
                     A"                     A'                     A"
 Frequencies --    820.2929               947.6380               980.2806
 Red. masses --      1.3694                 1.7345                 1.1259
 Frc consts  --      0.5429                 0.9177                 0.6375
 IR Inten    --     52.8470                14.5046                43.8285

                      7                      8                      9
                     A'                     A'                     A'
 Frequencies --   1109.4988              1315.0962              1347.9288
 Red. masses --      2.1115                 1.4585                 1.2660
 Frc consts  --      1.5314                 1.4862                 1.3552
 IR Inten    --    175.0919                 2.7507                 5.7807

                     10                     11                     12
                     A'                     A'                     A'
 Frequencies --   1440.3681              1690.1667              3191.4684
 Red. masses --      1.1595                 4.2906                 1.0612
 Frc consts  --      1.4173                 7.2215                 6.3686
 IR Inten    --     16.0911               151.4529                 3.8081

                     13                     14                     15
                     A'                     A'                     A'
 Frequencies --   3250.1232              3308.4536              3790.3050
 Red. masses --      1.0950                 1.1158                 1.0657
 Frc consts  --      6.8152                 7.1957                 9.0204
 IR Inten    --      3.9117                 5.5863                43.6243

 - Thermochemistry -
 -------------------
 Temperature   298.150 Kelvin.  Pressure   1.00000 Atm.
 Atom     1 has atomic number  8 and mass  15.99491

 Molecular mass:    44.02621 amu.
 Principal axes and moments of inertia in atomic units:
                           1         2         3
     Eigenvalues --    30.46744 174.41953 204.88697
           X            0.99751  -0.07055   0.00000
           Y            0.07055   0.99751   0.00000
           Z            0.00000  -0.00000   1.00000
 This molecule is an asymmetric top.
 Rotational symmetry number  1.
 Rotational temperatures (Kelvin)      2.84284     0.49658     0.42274
 Rotational constants (GHZ):          59.23507    10.34713     8.80847
 Zero-point vibrational energy     148464.6 (Joules/Mol)
                                   35.48389 (Kcal/Mol)
 Warning -- explicit consideration of   2 degrees of freedom as
           vibrations may cause significant error
 Vibrational temperatures:    634.63   693.67  1016.51  1180.22  1363.44
          (Kelvin)           1410.41  1596.32  1892.13  1939.37  2072.37
                             2431.77  4591.81  4676.20  4760.13  5453.40

 Zero-point correction=                           0.056547 (Hartree/Particle)
 Thermal correction to Energy=                    0.060209
 Thermal correction to Enthalpy=                  0.061153
 Thermal correction to Gibbs Free Energy=         0.032051
 Sum of electronic and zero-point Energies=           -153.344180
 Sum of electronic and thermal Energies=              -153.340518
 Sum of electronic and thermal Enthalpies=            -153.339574
 Sum of electronic and thermal Free Energies=         -153.368676

                     E (Thermal)             CV                S
                      KCal/Mol        Cal/Mol-Kelvin    Cal/Mol-Kelvin
 Total                   37.782             11.573             61.250
 Electronic               0.000              0.000              0.000
 Translational            0.889              2.981             37.273
 Rotational               0.889              2.981             21.615
 Vibrational             36.004              5.612              2.363
 Vibration     1          0.801              1.381              0.823
 Vibration     2          0.838              1.290              0.704

 Optimization completed.
    -- Stationary point found.
 Normal termination of Gaussian 16 at Mon Jun 20 14:47:44 2022.
