 Gaussian 16, Revision C.01,
 Gaussian 16:  EM64L-G16RevC.01  3-Jul-2019

 ----------------------------------------------
 # MP2/aug-cc-pVDZ opt freq=(vibrot,anharmonic)
 ----------------------------------------------

 ----
 blah
 ----
 Symbolic Z-matrix:
 Charge =  0 Multiplicity = 1

 SCF Done:  E(RHF) =  -152.916345271     A.U. after   13 cycles
 E2 =    -0.4813340283D+00 EUMP2 =    -0.15339767929919D+03
 SCF Done:  E(RHF) =  -152.915665990     A.U. after   11 cycles
 E2 =    -0.4829101587D+00 EUMP2 =    -0.15339857614820D+03
 SCF Done:  E(RHF) =  -152.915701105     A.U. after    9 cycles
 E2 =    -0.4829059888D+00 EUMP2 =    -0.15339860709375D+03
 SCF Done:  E(RHF) =  -152.915697450     A.U. after    9 cycles
 E2 =    -0.4829128206D+00 EUMP2 =    -0.15339861027100D+03
 Optimization completed.
    -- Stationary point found.
 Normal termination of Gaussian 16 at Fri Mar 21 11:00:53 2025.

 ----------------------------------------------------------------------
 #N Geom=AllCheck Guess=TCheck SCRF=Check GenChk RMP2(FC)/Aug-CC-pVDZ F
 req
 ----------------------------------------------------------------------

 Structure from the checkpoint file:  "/scr/Gau-28710.chk"
 ----
 blah
 ----
 Charge =  0 Multiplicity = 1

                         Standard orientation:
 ---------------------------------------------------------------------
 Center     Atomic      Atomic             Coordinates (Angstroms)
 Number     Number       Type             X           Y           Z
 ---------------------------------------------------------------------
      1          6           0        0.034449    0.422646    0.000000
      2          6           0        1.236086   -0.184773    0.000001
      3          1           0       -0.067853    1.512790   -0.000004
      4          8           0       -1.141008   -0.300877   -0.000003
      5          1           0        2.138208    0.426056   -0.000003
      6          1           0        1.319832   -1.272920    0.000003
      7          1           0       -1.885331    0.313854    0.000016
 ---------------------------------------------------------------------

 SCF Done:  E(RHF) =  -152.915697450     A.U. after    1 cycles
 E2 =    -0.4829128205D+00 EUMP2 =    -0.15339861027096D+03
 E2 =    -0.4829128205D+00 EUMP2 =    -0.15339861027096D+03
 SCF Done:  E(RHF) =  -152.915694575     A.U. after    9 cycles
 E2 =    -0.4829152145D+00 EUMP2 =    -0.15339860978918D+03
 E2 =    -0.4829152145D+00 EUMP2 =    -0.15339860978918D+03
 SCF Done:  E(RHF) =  -152.915694571     A.U. after    9 cycles
 E2 =    -0.4829152140D+00 EUMP2 =    -0.15339860978532D+03
 E2 =    -0.4829152140D+00 EUMP2 =    -0.15339860978532D+03
 SCF Done:  E(RHF) =  -152.915699630     A.U. after    8 cycles
 E2 =    -0.4829087786D+00 EUMP2 =    -0.15339860840828D+03
 E2 =    -0.4829087786D+00 EUMP2 =    -0.15339860840828D+03
 SCF Done:  E(RHF) =  -152.915691037     A.U. after    8 cycles
 E2 =    -0.4829181123D+00 EUMP2 =    -0.15339860914937D+03
 E2 =    -0.4829181123D+00 EUMP2 =    -0.15339860914937D+03
 SCF Done:  E(RHF) =  -152.915692925     A.U. after    9 cycles
 E2 =    -0.4829139333D+00 EUMP2 =    -0.15339860685860D+03
 E2 =    -0.4829139333D+00 EUMP2 =    -0.15339860685860D+03
 E2 =    -0.4829139309D+00 EUMP2 =    -0.15339860686283D+03
 E2 =    -0.4829139309D+00 EUMP2 =    -0.15339860686283D+03
 E2 =    -0.4829151070D+00 EUMP2 =    -0.15339860550785D+03
 E2 =    -0.4829151070D+00 EUMP2 =    -0.15339860550785D+03
 SCF Done:  E(RHF) =  -152.915454678     A.U. after   10 cycles
 E2 =    -0.4831359836D+00 EUMP2 =    -0.15339859066184D+03
 E2 =    -0.4831359836D+00 EUMP2 =    -0.15339859066184D+03
 SCF Done:  E(RHF) =  -152.915897788     A.U. after   10 cycles
 E2 =    -0.4826924389D+00 EUMP2 =    -0.15339859022727D+03
 E2 =    -0.4826924389D+00 EUMP2 =    -0.15339859022727D+03
 SCF Done:  E(RHF) =  -152.915686219     A.U. after   10 cycles
 E2 =    -0.4828553578D+00 EUMP2 =    -0.15339854157684D+03
 E2 =    -0.4828553578D+00 EUMP2 =    -0.15339854157684D+03
 SCF Done:  E(RHF) =  -152.915569510     A.U. after   10 cycles
 E2 =    -0.4829708960D+00 EUMP2 =    -0.15339854040587D+03
 E2 =    -0.4829708960D+00 EUMP2 =    -0.15339854040587D+03
 SCF Done:  E(RHF) =  -152.915410464     A.U. after    9 cycles
 E2 =    -0.4831315706D+00 EUMP2 =    -0.15339854203406D+03
 E2 =    -0.4831315706D+00 EUMP2 =    -0.15339854203406D+03
 SCF Done:  E(RHF) =  -152.915843847     A.U. after    9 cycles
 E2 =    -0.4826948011D+00 EUMP2 =    -0.15339853864792D+03
 E2 =    -0.4826948011D+00 EUMP2 =    -0.15339853864792D+03
 SCF Done:  E(RHF) =  -152.915597074     A.U. after    9 cycles
 E2 =    -0.4829387687D+00 EUMP2 =    -0.15339853584280D+03
 E2 =    -0.4829387687D+00 EUMP2 =    -0.15339853584280D+03
 SCF Done:  E(RHF) =  -152.915649247     A.U. after    9 cycles
 E2 =    -0.4828862643D+00 EUMP2 =    -0.15339853551121D+03
 E2 =    -0.4828862643D+00 EUMP2 =    -0.15339853551121D+03
 SCF Done:  E(RHF) =  -152.915102556     A.U. after    9 cycles
 E2 =    -0.4834098197D+00 EUMP2 =    -0.15339851237595D+03
 E2 =    -0.4834098197D+00 EUMP2 =    -0.15339851237595D+03
 SCF Done:  E(RHF) =  -152.916090410     A.U. after    9 cycles
 E2 =    -0.4824173078D+00 EUMP2 =    -0.15339850771794D+03
 E2 =    -0.4824173078D+00 EUMP2 =    -0.15339850771794D+03

 Alpha  occ. eigenvalues --  -20.60032 -11.30937 -11.22552  -1.40240  -1.02221
 Alpha  occ. eigenvalues --   -0.79643  -0.73949  -0.61841  -0.57354  -0.57217
 Alpha  occ. eigenvalues --   -0.52186  -0.34476
 Alpha virt. eigenvalues --    0.03167   0.04874   0.05363   0.07006   0.11009
 Alpha virt. eigenvalues --    0.11818   0.12616   0.12959   0.15477   0.17774
 Alpha virt. eigenvalues --    0.19751   0.20462   0.21068   0.22595   0.23614

 Mulliken charges:
               1
     1  C    0.919072
     2  C    0.333308
     3  H   -0.351585
     4  O   -0.530795
     5  H   -0.254359
     6  H   -0.261761
     7  H    0.146120
 Sum of Mulliken charges =  -0.00000

 Dipole moment (field-independent basis, Debye):
    X=             -0.7655    Y=              1.6402    Z=              0.0000  Tot=              1.8101
 Quadrupole moment (field-independent basis, Debye-Ang):
   XX=            -15.6608   YY=            -17.8600   ZZ=            -21.6750
   XY=             -2.5567   XZ=             -0.0001   YZ=              0.0000

  Exact polarizability:      42.925      -3.372      30.467      -0.000       0.000      25.505
 Approx polarizability:      33.525      -3.659      26.316      -0.000       0.000      22.994

                      1                      2                      3
                      A                      A                      A
 Frequencies --    266.8297               469.9002               710.3915
 Red. masses --      1.1030                 2.2444                 1.4754
 Frc consts  --      0.0463                 0.2920                 0.4387
 IR Inten    --     93.6604                 3.7535                21.7479

                      4                      5                      6
                      A                      A                      A
 Frequencies --    839.5626               946.1298               952.6593
 Red. masses --      1.4030                 1.9091                 1.0934
 Frc consts  --      0.5827                 1.0069                 0.5847
 IR Inten    --     47.9759                52.0519                34.4110

                      7                      8                      9
                      A                      A                      A
 Frequencies --   1129.7083              1282.5613              1339.8533
 Red. masses --      1.9165                 1.5239                 1.1779
 Frc consts  --      1.4411                 1.4769                 1.2459
 IR Inten    --     19.9741               185.5263                 5.5915

                     10                     11                     12
                      A                      A                      A
 Frequencies --   1429.0850              1712.9190              3201.8742
 Red. masses --      1.1769                 4.1565                 1.0625
 Frc consts  --      1.4161                 7.1854                 6.4178
 IR Inten    --      0.0800               101.7424                 5.8798

                     13                     14                     15
                      A                      A                      A
 Frequencies --   3216.8192              3322.3286              3850.5453
 Red. masses --      1.0914                 1.1183                 1.0672
 Frc consts  --      6.6541                 7.2729                 9.3229
 IR Inten    --      6.1570                 3.0756                94.0368

 - Thermochemistry -
 -------------------
 Temperature   298.150 Kelvin.  Pressure   1.00000 Atm.
 Atom     1 has atomic number  6 and mass  12.00000

 Molecular mass:    44.02621 amu.
 Principal axes and moments of inertia in atomic units:
                           1         2         3
     Eigenvalues --    29.11274 175.41788 204.53062
           X            0.99940  -0.03462  -0.00000
           Y            0.03462   0.99940  -0.00000
           Z            0.00000   0.00000   1.00000
 This molecule is an asymmetric top.
 Rotational symmetry number  1.
 Rotational temperatures (Kelvin)      2.97512     0.49376     0.42348
 Rotational constants (GHZ):          61.99145    10.28824     8.82382
 Zero-point vibrational energy     147566.4 (Joules/Mol)
                                   35.26920 (Kcal/Mol)
 Warning -- explicit consideration of   2 degrees of freedom as
           vibrations may cause significant error
 Vibrational temperatures:    383.91   676.08  1022.09  1207.94  1361.27
          (Kelvin)           1370.66  1625.40  1845.32  1927.75  2056.13
                             2464.51  4606.78  4628.29  4780.09  5540.08

 Zero-point correction=                           0.056205 (Hartree/Particle)
 Thermal correction to Energy=                    0.060066
 Thermal correction to Enthalpy=                  0.061011
 Thermal correction to Gibbs Free Energy=         0.031538
 Sum of electronic and zero-point Energies=           -153.342405
 Sum of electronic and thermal Energies=              -153.338544
 Sum of electronic and thermal Enthalpies=            -153.337600
 Sum of electronic and thermal Free Energies=         -153.367072

                     E (Thermal)             CV                S
                      KCal/Mol        Cal/Mol-Kelvin    Cal/Mol-Kelvin
 Total                   37.692             11.955             62.029
 Electronic               0.000              0.000              0.000
 Translational            0.889              2.981             37.273
 Rotational               0.889              2.981             21.573
 Vibrational             35.915              5.993              3.184
 Vibration     1          0.672              1.734              1.617
 Vibration     2          0.827              1.317              0.738

 ## DEPERTURBED TRANSITIONS MOMENTS ##

 Electric dipole : Fundamental Bands
 ------------------------------------------------------------------------

 ## AFTER VARIATIONAL CORRECTION

 Electric dipole : Fundamental Bands
 ------------------------------------------------------------------------

 Optimization completed.
    -- Stationary point found.
 Normal termination of Gaussian 16 at Fri Mar 21 11:15:06 2025.
