 Gaussian 16, Revision C.01,
 Gaussian 16:  EM64L-G16RevC.01  3-Jul-2019

 ----------------------------------------------
 # MP2/aug-cc-pVDZ opt freq=(vibrot,anharmonic)
 ----------------------------------------------

 ----
 blah
 ----
 Symbolic Z-matrix:
 Charge =  0 Multiplicity = 1

 SCF Done:  E(RHF) =  -265.662235629     A.U. after   14 cycles
 E2 =    -0.7973793163D+00 EUMP2 =    -0.26645961494576D+03
 SCF Done:  E(RHF) =  -265.661380689     A.U. after   12 cycles
 E2 =    -0.7998503238D+00 EUMP2 =    -0.26646123101323D+03
 SCF Done:  E(RHF) =  -265.661491946     A.U. after   11 cycles
 E2 =    -0.7998340938D+00 EUMP2 =    -0.26646132603943D+03
 SCF Done:  E(RHF) =  -265.661551887     A.U. after   10 cycles
 E2 =    -0.7997831930D+00 EUMP2 =    -0.26646133507953D+03
 Optimization completed.
    -- Stationary point found.
 Normal termination of Gaussian 16 at Sat Mar 22 15:43:10 2025.

 ----------------------------------------------------------------------
 #N Geom=AllCheck Guess=TCheck SCRF=Check GenChk RMP2(FC)/Aug-CC-pVDZ F
 req
 ----------------------------------------------------------------------

 Structure from the checkpoint file:  "/scr/Gau-82142.chk"
 ----
 blah
 ----
 Charge =  0 Multiplicity = 1

                         Standard orientation:
 ---------------------------------------------------------------------
 Center     Atomic      Atomic             Coordinates (Angstroms)
 Number     Number       Type             X           Y           Z
 ---------------------------------------------------------------------
      1          6           0        0.881403   -0.277730    0.000011
      2          6           0       -0.025206    0.731270   -0.000000
      3          1           0        0.551634   -1.322126    0.000038
      4          8           0        2.221938   -0.036773   -0.000010
      5          6           0       -1.464951    0.415306    0.000026
      6          1           0        2.695198   -0.880102    0.000006
      7          8           0       -1.940714   -0.723868   -0.000016
      8          1           0        0.299500    1.774899   -0.000026
      9          1           0       -2.143596    1.299380   -0.000033
 ---------------------------------------------------------------------

 SCF Done:  E(RHF) =  -265.661551887     A.U. after    1 cycles
 E2 =    -0.7997831911D+00 EUMP2 =    -0.26646133507771D+03
 E2 =    -0.7997831911D+00 EUMP2 =    -0.26646133507771D+03
 SCF Done:  E(RHF) =  -265.661550891     A.U. after   10 cycles
 E2 =    -0.7997839989D+00 EUMP2 =    -0.26646133488954D+03
 E2 =    -0.7997839989D+00 EUMP2 =    -0.26646133488954D+03
 SCF Done:  E(RHF) =  -265.661550881     A.U. after   10 cycles
 E2 =    -0.7997840020D+00 EUMP2 =    -0.26646133488269D+03
 E2 =    -0.7997840020D+00 EUMP2 =    -0.26646133488269D+03
 SCF Done:  E(RHF) =  -265.661546368     A.U. after    9 cycles
 E2 =    -0.7997882791D+00 EUMP2 =    -0.26646133464704D+03
 E2 =    -0.7997882791D+00 EUMP2 =    -0.26646133464704D+03
 SCF Done:  E(RHF) =  -265.661556285     A.U. after    9 cycles
 E2 =    -0.7997786477D+00 EUMP2 =    -0.26646133493245D+03
 E2 =    -0.7997786477D+00 EUMP2 =    -0.26646133493245D+03
 SCF Done:  E(RHF) =  -265.661551087     A.U. after    9 cycles
 E2 =    -0.7997835457D+00 EUMP2 =    -0.26646133463222D+03
 E2 =    -0.7997835457D+00 EUMP2 =    -0.26646133463222D+03
 E2 =    -0.7997835453D+00 EUMP2 =    -0.26646133463779D+03
 E2 =    -0.7997835453D+00 EUMP2 =    -0.26646133463779D+03
 E2 =    -0.7997854028D+00 EUMP2 =    -0.26646133381561D+03
 E2 =    -0.7997854028D+00 EUMP2 =    -0.26646133381561D+03
 SCF Done:  E(RHF) =  -265.661451856     A.U. after   11 cycles
 E2 =    -0.7998641418D+00 EUMP2 =    -0.26646131599762D+03
 E2 =    -0.7998641418D+00 EUMP2 =    -0.26646131599762D+03
 SCF Done:  E(RHF) =  -265.661609105     A.U. after   11 cycles
 E2 =    -0.7997045154D+00 EUMP2 =    -0.26646131362087D+03
 E2 =    -0.7997045154D+00 EUMP2 =    -0.26646131362087D+03
 SCF Done:  E(RHF) =  -265.661663670     A.U. after   10 cycles
 E2 =    -0.7996126920D+00 EUMP2 =    -0.26646127636219D+03
 E2 =    -0.7996126920D+00 EUMP2 =    -0.26646127636219D+03
 SCF Done:  E(RHF) =  -265.661317219     A.U. after   10 cycles
 E2 =    -0.7999561908D+00 EUMP2 =    -0.26646127340954D+03
 E2 =    -0.7999561908D+00 EUMP2 =    -0.26646127340954D+03
 SCF Done:  E(RHF) =  -265.661326579     A.U. after   10 cycles
 E2 =    -0.7999408221D+00 EUMP2 =    -0.26646126740141D+03
 E2 =    -0.7999408221D+00 EUMP2 =    -0.26646126740141D+03
 SCF Done:  E(RHF) =  -265.661635632     A.U. after   10 cycles
 E2 =    -0.7996272726D+00 EUMP2 =    -0.26646126290441D+03
 E2 =    -0.7996272726D+00 EUMP2 =    -0.26646126290441D+03
 SCF Done:  E(RHF) =  -265.661644676     A.U. after    9 cycles
 E2 =    -0.7996179041D+00 EUMP2 =    -0.26646126257971D+03
 E2 =    -0.7996179041D+00 EUMP2 =    -0.26646126257971D+03
 SCF Done:  E(RHF) =  -265.661317096     A.U. after    9 cycles
 E2 =    -0.7999486274D+00 EUMP2 =    -0.26646126572315D+03
 E2 =    -0.7999486274D+00 EUMP2 =    -0.26646126572315D+03
 SCF Done:  E(RHF) =  -265.660959032     A.U. after   10 cycles
 E2 =    -0.8002785678D+00 EUMP2 =    -0.26646123759965D+03
 E2 =    -0.8002785678D+00 EUMP2 =    -0.26646123759965D+03
 SCF Done:  E(RHF) =  -265.661944988     A.U. after   10 cycles
 E2 =    -0.7992896174D+00 EUMP2 =    -0.26646123460516D+03
 E2 =    -0.7992896174D+00 EUMP2 =    -0.26646123460516D+03

 Alpha  occ. eigenvalues --  -20.63563 -20.55383 -11.34942 -11.34403 -11.24383
 Alpha  occ. eigenvalues --   -1.44158  -1.37222  -1.06828  -0.89529  -0.77662
 Alpha  occ. eigenvalues --   -0.76697  -0.66527  -0.63921  -0.60738  -0.60573
 Alpha  occ. eigenvalues --   -0.54764  -0.52596  -0.42348  -0.36301
 Alpha virt. eigenvalues --    0.02615   0.03938   0.05616   0.06434   0.06810
 Alpha virt. eigenvalues --    0.10167   0.11174   0.12078   0.12885   0.13915
 Alpha virt. eigenvalues --    0.14876   0.15367   0.15923   0.17060   0.18082

 Mulliken charges:
               1
     1  C    0.934301
     2  C    0.378744
     3  H   -0.354503
     4  O   -0.587532
     5  C    0.542675
     6  H    0.182690
     7  O   -0.550595
     8  H   -0.414794
     9  H   -0.130987
 Sum of Mulliken charges =  -0.00000

 Dipole moment (field-independent basis, Debye):
    X=              2.6916    Y=              0.1669    Z=              0.0001  Tot=              2.6967
 Quadrupole moment (field-independent basis, Debye-Ang):
   XX=            -31.1511   YY=            -27.1273   ZZ=            -31.2360
   XY=             -9.0528   XZ=              0.0000   YZ=             -0.0001

  Exact polarizability:      68.545      -4.756      48.088       0.000      -0.000      31.232
 Approx polarizability:      46.723      -3.065      42.948       0.000       0.000      30.367

                      1                      2                      3
                      A                      A                      A
 Frequencies --    167.1463               205.1650               253.0174
 Red. masses --      2.0148                 5.3702                 3.7153
 Frc consts  --      0.0332                 0.1332                 0.1401
 IR Inten    --     40.6233                11.7583                 0.0011

                      4                      5                      6
                      A                      A                      A
 Frequencies --    430.4581               438.3293               738.2640
 Red. masses --      1.0880                 5.6793                 6.0822
 Frc consts  --      0.1188                 0.6429                 1.9531
 IR Inten    --    100.1400                 3.9967                94.4981

                      7                      8                      9
                      A                      A                      A
 Frequencies --    818.8609               968.2400               994.4071
 Red. masses --      1.6150                 1.1614                 2.2363
 Frc consts  --      0.6380                 0.6415                 1.3029
 IR Inten    --      9.6035                34.2572                35.0840

                     10                     11                     12
                      A                      A                      A
 Frequencies --   1004.2490              1162.0998              1240.5268
 Red. masses --      1.7625                 1.3324                 2.9346
 Frc consts  --      1.0473                 1.0602                 2.6608
 IR Inten    --      0.0410                 1.8830               199.6524

                     13                     14                     15
                      A                      A                      A
 Frequencies --   1330.1658              1365.2335              1418.9205
 Red. masses --      1.2937                 1.5133                 1.2841
 Frc consts  --      1.3486                 1.6618                 1.5233
 IR Inten    --      2.0769               119.2933                10.2480

                     16                     17                     18
                      A                      A                      A
 Frequencies --   1677.3563              1731.7707              2984.1249
 Red. masses --      8.0785                 5.1412                 1.0849
 Frc consts  --     13.3916                 9.0843                 5.6919
 IR Inten    --    386.9966               121.4067               127.3287

                     19                     20                     21
                      A                      A                      A
 Frequencies --   3216.3988              3239.3507              3826.4164
 Red. masses --      1.0932                 1.0936                 1.0671
 Frc consts  --      6.6635                 6.7610                 9.2054
 IR Inten    --      0.9189                 2.9888               145.6460

 - Thermochemistry -
 -------------------
 Temperature   298.150 Kelvin.  Pressure   1.00000 Atm.
 Atom     1 has atomic number  6 and mass  12.00000

 Molecular mass:    72.02113 amu.
 Principal axes and moments of inertia in atomic units:
                           1         2         3
     Eigenvalues --    89.45696 667.03237 756.48934
           X            0.99946  -0.03272   0.00000
           Y            0.03272   0.99946  -0.00001
           Z           -0.00000   0.00001   1.00000
 This molecule is an asymmetric top.
 Rotational symmetry number  1.
 Rotational temperatures (Kelvin)      0.96822     0.12985     0.11449
 Rotational constants (GHZ):          20.17441     2.70563     2.38568
 Zero-point vibrational energy     174717.6 (Joules/Mol)
                                   41.75851 (Kcal/Mol)
 Warning -- explicit consideration of   5 degrees of freedom as
           vibrations may cause significant error
 Vibrational temperatures:    240.49   295.19   364.04   619.33   630.66
          (Kelvin)           1062.20  1178.16  1393.08  1430.73  1444.89
                             1672.00  1784.84  1913.81  1964.27  2041.51
                             2413.34  2491.63  4293.49  4627.68  4660.70
                             5505.36

 Zero-point correction=                           0.066546 (Hartree/Particle)
 Thermal correction to Energy=                    0.071933
 Thermal correction to Enthalpy=                  0.072877
 Thermal correction to Gibbs Free Energy=         0.038234
 Sum of electronic and zero-point Energies=           -266.394789
 Sum of electronic and thermal Energies=              -266.389402
 Sum of electronic and thermal Enthalpies=            -266.388458
 Sum of electronic and thermal Free Energies=         -266.423101

                     E (Thermal)             CV                S
                      KCal/Mol        Cal/Mol-Kelvin    Cal/Mol-Kelvin
 Total                   45.139             17.608             72.912
 Electronic               0.000              0.000              0.000
 Translational            0.889              2.981             38.740
 Rotational               0.889              2.981             25.315
 Vibrational             43.361             11.647              8.857
 Vibration     1          0.624              1.883              2.467
 Vibration     2          0.640              1.833              2.086
 Vibration     3          0.664              1.758              1.709
 Vibration     4          0.792              1.404              0.857
 Vibration     5          0.798              1.387              0.832

 ## DEPERTURBED TRANSITIONS MOMENTS ##

 Electric dipole : Fundamental Bands
 ------------------------------------------------------------------------

 ## AFTER VARIATIONAL CORRECTION

 Electric dipole : Fundamental Bands
 ------------------------------------------------------------------------

 Optimization completed.
    -- Stationary point found.
 Normal termination of Gaussian 16 at Sat Mar 22 16:51:39 2025.
