 Gaussian 16, Revision C.01,
 Gaussian 16:  EM64L-G16RevC.01  3-Jul-2019

 ----------------------------------------------
 # MP2/aug-cc-pVDZ opt freq=(vibrot,anharmonic)
 ----------------------------------------------

 ----
 blah
 ----
 Symbolic Z-matrix:
 Charge =  0 Multiplicity = 1

 SCF Done:  E(RHF) =  -265.661523706     A.U. after   14 cycles
 E2 =    -0.7970576360D+00 EUMP2 =    -0.26645858134171D+03
 SCF Done:  E(RHF) =  -265.660312772     A.U. after   12 cycles
 E2 =    -0.8000745608D+00 EUMP2 =    -0.26646038733297D+03
 SCF Done:  E(RHF) =  -265.660364313     A.U. after   11 cycles
 E2 =    -0.8001153641D+00 EUMP2 =    -0.26646047967761D+03
 SCF Done:  E(RHF) =  -265.660371974     A.U. after   10 cycles
 E2 =    -0.8001189904D+00 EUMP2 =    -0.26646049096401D+03
 Optimization completed.
    -- Stationary point found.
 Normal termination of Gaussian 16 at Sat Mar 22 10:24:03 2025.

 ----------------------------------------------------------------------
 #N Geom=AllCheck Guess=TCheck SCRF=Check GenChk RMP2(FC)/Aug-CC-pVDZ F
 req
 ----------------------------------------------------------------------

 Structure from the checkpoint file:  "/scr/Gau-36896.chk"
 ----
 blah
 ----
 Charge =  0 Multiplicity = 1

                         Standard orientation:
 ---------------------------------------------------------------------
 Center     Atomic      Atomic             Coordinates (Angstroms)
 Number     Number       Type             X           Y           Z
 ---------------------------------------------------------------------
      1          6           0        1.245150    0.553468    0.000007
      2          6           0       -0.099636    0.747480   -0.000013
      3          1           0        1.942803    1.397613    0.000031
      4          8           0        1.802193   -0.696938    0.000005
      5          6           0       -1.078070   -0.349398   -0.000051
      6          1           0        2.764887   -0.614602    0.000008
      7          8           0       -2.298859   -0.163558    0.000029
      8          1           0       -0.474700    1.773222   -0.000002
      9          1           0       -0.664332   -1.381563    0.000029
 ---------------------------------------------------------------------

 SCF Done:  E(RHF) =  -265.660371974     A.U. after    1 cycles
 E2 =    -0.8001189905D+00 EUMP2 =    -0.26646049096406D+03
 E2 =    -0.8001189905D+00 EUMP2 =    -0.26646049096406D+03
 SCF Done:  E(RHF) =  -265.660371205     A.U. after   10 cycles
 E2 =    -0.8001196103D+00 EUMP2 =    -0.26646049081509D+03
 E2 =    -0.8001196103D+00 EUMP2 =    -0.26646049081509D+03
 SCF Done:  E(RHF) =  -265.660371191     A.U. after   10 cycles
 E2 =    -0.8001196140D+00 EUMP2 =    -0.26646049080526D+03
 E2 =    -0.8001196140D+00 EUMP2 =    -0.26646049080526D+03
 SCF Done:  E(RHF) =  -265.660374218     A.U. after    9 cycles
 E2 =    -0.8001165648D+00 EUMP2 =    -0.26646049078247D+03
 E2 =    -0.8001165648D+00 EUMP2 =    -0.26646049078247D+03
 SCF Done:  E(RHF) =  -265.660368660     A.U. after    9 cycles
 E2 =    -0.8001219228D+00 EUMP2 =    -0.26646049058308D+03
 E2 =    -0.8001219228D+00 EUMP2 =    -0.26646049058308D+03
 SCF Done:  E(RHF) =  -265.660369405     A.U. after   10 cycles
 E2 =    -0.8001209842D+00 EUMP2 =    -0.26646049038899D+03
 E2 =    -0.8001209842D+00 EUMP2 =    -0.26646049038899D+03
 E2 =    -0.8001209812D+00 EUMP2 =    -0.26646049039364D+03
 E2 =    -0.8001209812D+00 EUMP2 =    -0.26646049039364D+03
 E2 =    -0.8001201542D+00 EUMP2 =    -0.26646048963425D+03
 E2 =    -0.8001201542D+00 EUMP2 =    -0.26646048963425D+03
 SCF Done:  E(RHF) =  -265.660752751     A.U. after   10 cycles
 E2 =    -0.7997188533D+00 EUMP2 =    -0.26646047160447D+03
 E2 =    -0.7997188533D+00 EUMP2 =    -0.26646047160447D+03
 SCF Done:  E(RHF) =  -265.659949184     A.U. after   10 cycles
 E2 =    -0.8005214764D+00 EUMP2 =    -0.26646047066073D+03
 E2 =    -0.8005214764D+00 EUMP2 =    -0.26646047066073D+03
 SCF Done:  E(RHF) =  -265.660110115     A.U. after   10 cycles
 E2 =    -0.8003206066D+00 EUMP2 =    -0.26646043072131D+03
 E2 =    -0.8003206066D+00 EUMP2 =    -0.26646043072131D+03
 SCF Done:  E(RHF) =  -265.660508136     A.U. after   10 cycles
 E2 =    -0.7999202013D+00 EUMP2 =    -0.26646042833742D+03
 E2 =    -0.7999202013D+00 EUMP2 =    -0.26646042833742D+03
 SCF Done:  E(RHF) =  -265.660204939     A.U. after    9 cycles
 E2 =    -0.8002198837D+00 EUMP2 =    -0.26646042482253D+03
 E2 =    -0.8002198837D+00 EUMP2 =    -0.26646042482253D+03
 SCF Done:  E(RHF) =  -265.660398613     A.U. after    9 cycles
 E2 =    -0.8000195006D+00 EUMP2 =    -0.26646041811331D+03
 E2 =    -0.8000195006D+00 EUMP2 =    -0.26646041811331D+03
 SCF Done:  E(RHF) =  -265.660495276     A.U. after   10 cycles
 E2 =    -0.7999230539D+00 EUMP2 =    -0.26646041833028D+03
 E2 =    -0.7999230539D+00 EUMP2 =    -0.26646041833028D+03
 SCF Done:  E(RHF) =  -265.660105367     A.U. after   10 cycles
 E2 =    -0.8003152688D+00 EUMP2 =    -0.26646042063608D+03
 E2 =    -0.8003152688D+00 EUMP2 =    -0.26646042063608D+03
 SCF Done:  E(RHF) =  -265.659780471     A.U. after   10 cycles
 E2 =    -0.8006128505D+00 EUMP2 =    -0.26646039332101D+03
 E2 =    -0.8006128505D+00 EUMP2 =    -0.26646039332101D+03
 SCF Done:  E(RHF) =  -265.660762554     A.U. after   10 cycles
 E2 =    -0.7996268249D+00 EUMP2 =    -0.26646038937883D+03
 E2 =    -0.7996268249D+00 EUMP2 =    -0.26646038937883D+03

 Alpha  occ. eigenvalues --  -20.63717 -20.55563 -11.35350 -11.33862 -11.25063
 Alpha  occ. eigenvalues --   -1.44320  -1.36986  -1.07342  -0.88925  -0.79924
 Alpha  occ. eigenvalues --   -0.75165  -0.68839  -0.62403  -0.61159  -0.58502
 Alpha  occ. eigenvalues --   -0.57301  -0.52059  -0.42081  -0.36804
 Alpha virt. eigenvalues --    0.01856   0.04027   0.05177   0.06671   0.07387
 Alpha virt. eigenvalues --    0.09593   0.10981   0.11748   0.12938   0.13809
 Alpha virt. eigenvalues --    0.14508   0.15195   0.15947   0.17207   0.18215

 Mulliken charges:
               1
     1  C    0.861318
     2  C    0.390826
     3  H   -0.357443
     4  O   -0.547465
     5  C    0.621234
     6  H    0.171759
     7  O   -0.544491
     8  H   -0.439142
     9  H   -0.156596
 Sum of Mulliken charges =  -0.00000

 Dipole moment (field-independent basis, Debye):
    X=              5.2762    Y=              0.8950    Z=             -0.0000  Tot=              5.3516
 Quadrupole moment (field-independent basis, Debye-Ang):
   XX=            -29.4323   YY=            -28.4491   ZZ=            -31.2729
   XY=              0.7812   XZ=              0.0003   YZ=              0.0000

  Exact polarizability:      72.939      -0.267      43.453       0.000      -0.000      31.381
 Approx polarizability:      56.280      -1.273      35.308      -0.000       0.000      30.521

                      1                      2                      3
                      A                      A                      A
 Frequencies --    147.0444               201.3896               289.3971
 Red. masses --      3.1070                 5.7333                 1.4823
 Frc consts  --      0.0396                 0.1370                 0.0731
 IR Inten    --      4.1213                 1.3670               106.4369

                      4                      5                      6
                      A                      A                      A
 Frequencies --    441.1381               465.7337               683.4361
 Red. masses --      1.5802                 5.5112                 4.7623
 Frc consts  --      0.1812                 0.7043                 1.3106
 IR Inten    --     13.3438                13.9991                13.3419

                      7                      8                      9
                      A                      A                      A
 Frequencies --    794.0989               930.3323              1007.0595
 Red. masses --      1.2599                 1.3609                 1.6534
 Frc consts  --      0.4681                 0.6940                 0.9880
 IR Inten    --     50.6654                 0.0747                 0.3256

                     10                     11                     12
                      A                      A                      A
 Frequencies --   1011.9360              1158.5809              1232.1028
 Red. masses --      3.3649                 1.9691                 1.2009
 Frc consts  --      2.0302                 1.5573                 1.0741
 IR Inten    --    106.1739                34.2465                23.2430

                     13                     14                     15
                      A                      A                      A
 Frequencies --   1288.4839              1375.6296              1445.3990
 Red. masses --      1.6403                 1.2139                 1.5699
 Frc consts  --      1.6045                 1.3534                 1.9324
 IR Inten    --    222.4494                 5.5811                15.5399

                     16                     17                     18
                      A                      A                      A
 Frequencies --   1678.2106              1712.8433              3014.6917
 Red. masses --      7.2759                 5.4706                 1.0857
 Frc consts  --     12.0734                 9.4563                 5.8138
 IR Inten    --     25.7567               316.2710                48.3062

                     19                     20                     21
                      A                      A                      A
 Frequencies --   3206.4728              3251.9522              3838.6739
 Red. masses --      1.0907                 1.0956                 1.0674
 Frc consts  --      6.6073                 6.8261                 9.2666
 IR Inten    --      6.9282                 1.8150               144.0011

 - Thermochemistry -
 -------------------
 Temperature   298.150 Kelvin.  Pressure   1.00000 Atm.
 Atom     1 has atomic number  6 and mass  12.00000

 Molecular mass:    72.02113 amu.
 Principal axes and moments of inertia in atomic units:
                           1         2         3
     Eigenvalues --    98.05181 646.95074 745.00255
           X            0.99997   0.00739   0.00000
           Y           -0.00739   0.99997  -0.00000
           Z           -0.00000   0.00000   1.00000
 This molecule is an asymmetric top.
 Rotational symmetry number  1.
 Rotational temperatures (Kelvin)      0.88335     0.13388     0.11626
 Rotational constants (GHZ):          18.40600     2.78961     2.42246
 Zero-point vibrational energy     174502.9 (Joules/Mol)
                                   41.70719 (Kcal/Mol)
 Warning -- explicit consideration of   5 degrees of freedom as
           vibrations may cause significant error
 Vibrational temperatures:    211.56   289.75   416.38   634.70   670.09
          (Kelvin)            983.31  1142.53  1338.54  1448.93  1455.95
                             1666.94  1772.72  1853.84  1979.22  2079.61
                             2414.57  2464.40  4337.47  4613.40  4678.83
                             5523.00

 Zero-point correction=                           0.066465 (Hartree/Particle)
 Thermal correction to Energy=                    0.071844
 Thermal correction to Enthalpy=                  0.072788
 Thermal correction to Gibbs Free Energy=         0.038112
 Sum of electronic and zero-point Energies=           -266.394026
 Sum of electronic and thermal Energies=              -266.388647
 Sum of electronic and thermal Enthalpies=            -266.387703
 Sum of electronic and thermal Free Energies=         -266.422379

                     E (Thermal)             CV                S
                      KCal/Mol        Cal/Mol-Kelvin    Cal/Mol-Kelvin
 Total                   45.083             17.674             72.982
 Electronic               0.000              0.000              0.000
 Translational            0.889              2.981             38.740
 Rotational               0.889              2.981             25.361
 Vibrational             43.305             11.712              8.882
 Vibration     1          0.617              1.906              2.710
 Vibration     2          0.638              1.838              2.120
 Vibration     3          0.686              1.693              1.477
 Vibration     4          0.801              1.380              0.823
 Vibration     5          0.823              1.326              0.750

 ## DEPERTURBED TRANSITIONS MOMENTS ##

 Electric dipole : Fundamental Bands
 ------------------------------------------------------------------------

 ## AFTER VARIATIONAL CORRECTION

 Electric dipole : Fundamental Bands
 ------------------------------------------------------------------------

 Optimization completed.
    -- Stationary point found.
 Normal termination of Gaussian 16 at Sat Mar 22 11:33:00 2025.
