 Gaussian 16, Revision C.01,
 Gaussian 16:  EM64L-G16RevC.01  3-Jul-2019

 ----------------------------------------------
 # MP2/aug-cc-pVDZ opt freq=(vibrot,anharmonic)
 ----------------------------------------------

 ----
 blah
 ----
 Symbolic Z-matrix:
 Charge =  0 Multiplicity = 1

 SCF Done:  E(RHF) =  -265.663623197     A.U. after   14 cycles
 E2 =    -0.7972162065D+00 EUMP2 =    -0.26646083940376D+03
 SCF Done:  E(RHF) =  -265.662411975     A.U. after   12 cycles
 E2 =    -0.7998358222D+00 EUMP2 =    -0.26646224779719D+03
 SCF Done:  E(RHF) =  -265.662583114     A.U. after   11 cycles
 E2 =    -0.7997657610D+00 EUMP2 =    -0.26646234887534D+03
 SCF Done:  E(RHF) =  -265.662707402     A.U. after   10 cycles
 E2 =    -0.7996495161D+00 EUMP2 =    -0.26646235691822D+03
 Optimization completed.
    -- Stationary point found.
 Normal termination of Gaussian 16 at Sat Mar 22 17:32:42 2025.

 ----------------------------------------------------------------------
 #N Geom=AllCheck Guess=TCheck SCRF=Check GenChk RMP2(FC)/Aug-CC-pVDZ F
 req
 ----------------------------------------------------------------------

 Structure from the checkpoint file:  "/scr/Gau-22290.chk"
 ----
 blah
 ----
 Charge =  0 Multiplicity = 1

                         Standard orientation:
 ---------------------------------------------------------------------
 Center     Atomic      Atomic             Coordinates (Angstroms)
 Number     Number       Type             X           Y           Z
 ---------------------------------------------------------------------
      1          6           0       -0.882526   -0.322818   -0.000014
      2          6           0        0.004147    0.707523   -0.000005
      3          1           0       -0.542443   -1.361062   -0.000043
      4          8           0       -2.236210   -0.229025    0.000009
      5          6           0        1.453702    0.433949   -0.000036
      6          1           0       -2.490092    0.707771    0.000034
      7          8           0        1.962206   -0.689479    0.000021
      8          1           0       -0.331497    1.749999    0.000026
      9          1           0        2.104121    1.339404    0.000068
 ---------------------------------------------------------------------

 SCF Done:  E(RHF) =  -265.662707402     A.U. after    1 cycles
 E2 =    -0.7996495147D+00 EUMP2 =    -0.26646235691681D+03
 E2 =    -0.7996495147D+00 EUMP2 =    -0.26646235691681D+03
 SCF Done:  E(RHF) =  -265.662706419     A.U. after    9 cycles
 E2 =    -0.7996503157D+00 EUMP2 =    -0.26646235673481D+03
 E2 =    -0.7996503157D+00 EUMP2 =    -0.26646235673481D+03
 SCF Done:  E(RHF) =  -265.662706408     A.U. after    9 cycles
 E2 =    -0.7996503194D+00 EUMP2 =    -0.26646235672716D+03
 E2 =    -0.7996503194D+00 EUMP2 =    -0.26646235672716D+03
 SCF Done:  E(RHF) =  -265.662702624     A.U. after    9 cycles
 E2 =    -0.7996538977D+00 EUMP2 =    -0.26646235652177D+03
 E2 =    -0.7996538977D+00 EUMP2 =    -0.26646235652177D+03
 SCF Done:  E(RHF) =  -265.662711054     A.U. after    9 cycles
 E2 =    -0.7996456932D+00 EUMP2 =    -0.26646235674707D+03
 E2 =    -0.7996456932D+00 EUMP2 =    -0.26646235674707D+03
 SCF Done:  E(RHF) =  -265.662706617     A.U. after    9 cycles
 E2 =    -0.7996498635D+00 EUMP2 =    -0.26646235648084D+03
 E2 =    -0.7996498635D+00 EUMP2 =    -0.26646235648084D+03
 E2 =    -0.7996498626D+00 EUMP2 =    -0.26646235649026D+03
 E2 =    -0.7996498626D+00 EUMP2 =    -0.26646235649026D+03
 E2 =    -0.7996826960D+00 EUMP2 =    -0.26646235565182D+03
 E2 =    -0.7996826960D+00 EUMP2 =    -0.26646235565182D+03
 SCF Done:  E(RHF) =  -265.662927553     A.U. after   11 cycles
 E2 =    -0.7994085761D+00 EUMP2 =    -0.26646233612921D+03
 E2 =    -0.7994085761D+00 EUMP2 =    -0.26646233612921D+03
 SCF Done:  E(RHF) =  -265.662445087     A.U. after   11 cycles
 E2 =    -0.7998926130D+00 EUMP2 =    -0.26646233769964D+03
 E2 =    -0.7998926130D+00 EUMP2 =    -0.26646233769964D+03
 SCF Done:  E(RHF) =  -265.662819144     A.U. after   10 cycles
 E2 =    -0.7994786523D+00 EUMP2 =    -0.26646229779608D+03
 E2 =    -0.7994786523D+00 EUMP2 =    -0.26646229779608D+03
 SCF Done:  E(RHF) =  -265.662473114     A.U. after   10 cycles
 E2 =    -0.7998229298D+00 EUMP2 =    -0.26646229604377D+03
 E2 =    -0.7998229298D+00 EUMP2 =    -0.26646229604377D+03
 SCF Done:  E(RHF) =  -265.662807630     A.U. after    9 cycles
 E2 =    -0.7994785716D+00 EUMP2 =    -0.26646228620185D+03
 E2 =    -0.7994785716D+00 EUMP2 =    -0.26646228620185D+03
 SCF Done:  E(RHF) =  -265.662467991     A.U. after    9 cycles
 E2 =    -0.7998203624D+00 EUMP2 =    -0.26646228835322D+03
 E2 =    -0.7998203624D+00 EUMP2 =    -0.26646228835321D+03
 SCF Done:  E(RHF) =  -265.662453521     A.U. after   10 cycles
 E2 =    -0.7998334831D+00 EUMP2 =    -0.26646228700414D+03
 E2 =    -0.7998334831D+00 EUMP2 =    -0.26646228700414D+03
 SCF Done:  E(RHF) =  -265.662816484     A.U. after   10 cycles
 E2 =    -0.7994670646D+00 EUMP2 =    -0.26646228354865D+03
 E2 =    -0.7994670646D+00 EUMP2 =    -0.26646228354865D+03
 SCF Done:  E(RHF) =  -265.663105753     A.U. after   10 cycles
 E2 =    -0.7991526702D+00 EUMP2 =    -0.26646225842320D+03
 E2 =    -0.7991526702D+00 EUMP2 =    -0.26646225842320D+03
 SCF Done:  E(RHF) =  -265.662114481     A.U. after   10 cycles
 E2 =    -0.8001484550D+00 EUMP2 =    -0.26646226293584D+03
 E2 =    -0.8001484550D+00 EUMP2 =    -0.26646226293584D+03

 Alpha  occ. eigenvalues --  -20.64062 -20.55617 -11.35360 -11.34732 -11.25023
 Alpha  occ. eigenvalues --   -1.44132  -1.37512  -1.06823  -0.90212  -0.81255
 Alpha  occ. eigenvalues --   -0.71470  -0.68785  -0.63760  -0.60999  -0.60077
 Alpha  occ. eigenvalues --   -0.56064  -0.52879  -0.42535  -0.36808
 Alpha virt. eigenvalues --    0.02455   0.04165   0.05231   0.06652   0.06822
 Alpha virt. eigenvalues --    0.10374   0.11155   0.12461   0.13066   0.13148
 Alpha virt. eigenvalues --    0.13972   0.14594   0.14887   0.16569   0.17804

 Mulliken charges:
               1
     1  C    0.677564
     2  C    0.656158
     3  H   -0.259192
     4  O   -0.504977
     5  C    0.482853
     6  H    0.151053
     7  O   -0.539253
     8  H   -0.539361
     9  H   -0.124846
 Sum of Mulliken charges =  -0.00000

 Dipole moment (field-independent basis, Debye):
    X=             -2.3570    Y=              2.9116    Z=              0.0000  Tot=              3.7460
 Quadrupole moment (field-independent basis, Debye-Ang):
   XX=            -33.3008   YY=            -27.4427   ZZ=            -31.2695
   XY=              0.2470   XZ=             -0.0002   YZ=              0.0002

  Exact polarizability:      68.097       2.681      48.334       0.000       0.000      31.302
 Approx polarizability:      46.406       1.750      43.553       0.000      -0.000      30.422

                      1                      2                      3
                      A                      A                      A
 Frequencies --    164.6848               203.8862               250.3929
 Red. masses --      1.7968                 6.4676                 2.9707
 Frc consts  --      0.0287                 0.1584                 0.1097
 IR Inten    --      0.0073                 2.6434                 7.2988

                      4                      5                      6
                      A                      A                      A
 Frequencies --    442.0535               537.4874               735.2549
 Red. masses --      4.2447                 1.2523                 5.7399
 Frc consts  --      0.4887                 0.2132                 1.8282
 IR Inten    --      7.9690                75.5113                71.9492

                      7                      8                      9
                      A                      A                      A
 Frequencies --    801.8957               997.7199              1002.3050
 Red. masses --      1.5634                 1.3827                 2.3889
 Frc consts  --      0.5923                 0.8109                 1.4140
 IR Inten    --     25.8314                24.3352               113.1432

                     10                     11                     12
                      A                      A                      A
 Frequencies --   1007.5409              1142.2872              1282.3634
 Red. masses --      1.4365                 1.5267                 2.7645
 Frc consts  --      0.8592                 1.1737                 2.6785
 IR Inten    --     25.5519               140.8571                11.5042

                     13                     14                     15
                      A                      A                      A
 Frequencies --   1312.6886              1389.9911              1420.3952
 Red. masses --      1.2955                 1.3138                 1.3066
 Frc consts  --      1.3153                 1.4955                 1.5531
 IR Inten    --     34.6453                 0.1700                 3.4047

                     16                     17                     18
                      A                      A                      A
 Frequencies --   1669.3133              1720.4462              2979.3380
 Red. masses --      7.3155                 6.0641                 1.0846
 Frc consts  --     12.0108                10.5755                 5.6724
 IR Inten    --    537.4580                88.5998               126.6161

                     19                     20                     21
                      A                      A                      A
 Frequencies --   3209.8744              3255.6649              3773.1516
 Red. masses --      1.0932                 1.0931                 1.0657
 Frc consts  --      6.6362                 6.8261                 8.9389
 IR Inten    --     10.0515                 0.5762                76.9333

 - Thermochemistry -
 -------------------
 Temperature   298.150 Kelvin.  Pressure   1.00000 Atm.
 Atom     1 has atomic number  6 and mass  12.00000

 Molecular mass:    72.02113 amu.
 Principal axes and moments of inertia in atomic units:
                           1         2         3
     Eigenvalues --    89.76688 669.14438 758.91125
           X            0.99997   0.00714   0.00000
           Y           -0.00714   0.99997   0.00001
           Z           -0.00000  -0.00001   1.00000
 This molecule is an asymmetric top.
 Rotational symmetry number  1.
 Rotational temperatures (Kelvin)      0.96488     0.12944     0.11413
 Rotational constants (GHZ):          20.10476     2.69709     2.37807
 Zero-point vibrational energy     175245.4 (Joules/Mol)
                                   41.88464 (Kcal/Mol)
 Warning -- explicit consideration of   5 degrees of freedom as
           vibrations may cause significant error
 Vibrational temperatures:    236.94   293.35   360.26   636.02   773.32
          (Kelvin)           1057.87  1153.75  1435.50  1442.09  1449.63
                             1643.50  1845.03  1888.67  1999.89  2043.63
                             2401.77  2475.34  4286.60  4618.29  4684.18
                             5428.72

 Zero-point correction=                           0.066747 (Hartree/Particle)
 Thermal correction to Energy=                    0.072057
 Thermal correction to Enthalpy=                  0.073001
 Thermal correction to Gibbs Free Energy=         0.038468
 Sum of electronic and zero-point Energies=           -266.395609
 Sum of electronic and thermal Energies=              -266.390300
 Sum of electronic and thermal Enthalpies=            -266.389356
 Sum of electronic and thermal Free Energies=         -266.423889

                     E (Thermal)             CV                S
                      KCal/Mol        Cal/Mol-Kelvin    Cal/Mol-Kelvin
 Total                   45.216             17.352             72.680
 Electronic               0.000              0.000              0.000
 Translational            0.889              2.981             38.740
 Rotational               0.889              2.981             25.325
 Vibrational             43.439             11.390              8.616
 Vibration     1          0.623              1.886              2.495
 Vibration     2          0.640              1.834              2.098
 Vibration     3          0.663              1.762              1.728
 Vibration     4          0.802              1.378              0.820
 Vibration     5          0.893              1.167              0.571

 ## DEPERTURBED TRANSITIONS MOMENTS ##

 Electric dipole : Fundamental Bands
 ------------------------------------------------------------------------

 ## AFTER VARIATIONAL CORRECTION

 Electric dipole : Fundamental Bands
 ------------------------------------------------------------------------

 Optimization completed.
    -- Stationary point found.
 Normal termination of Gaussian 16 at Sat Mar 22 18:40:24 2025.
