 Gaussian 16, Revision C.01,
 Gaussian 16:  EM64L-G16RevC.01  3-Jul-2019

 ----------------------------------------------
 # MP2/aug-cc-pVDZ opt freq=(vibrot,anharmonic)
 ----------------------------------------------

 ----
 blah
 ----
 Symbolic Z-matrix:
 Charge =  0 Multiplicity = 1

 SCF Done:  E(RHF) =  -152.918709109     A.U. after   13 cycles
 E2 =    -0.4812165013D+00 EUMP2 =    -0.15339992561059D+03
 SCF Done:  E(RHF) =  -152.917694742     A.U. after   11 cycles
 E2 =    -0.4830049825D+00 EUMP2 =    -0.15340069972487D+03
 SCF Done:  E(RHF) =  -152.917857493     A.U. after    9 cycles
 E2 =    -0.4828670288D+00 EUMP2 =    -0.15340072452168D+03
 SCF Done:  E(RHF) =  -152.917872502     A.U. after    8 cycles
 E2 =    -0.4828542942D+00 EUMP2 =    -0.15340072679617D+03
 Optimization completed.
    -- Stationary point found.
 Normal termination of Gaussian 16 at Fri Mar 21 11:15:30 2025.

 ----------------------------------------------------------------------
 #N Geom=AllCheck Guess=TCheck SCRF=Check GenChk RMP2(FC)/Aug-CC-pVDZ F
 req
 ----------------------------------------------------------------------

 Structure from the checkpoint file:  "/scr/Gau-73288.chk"
 ----
 blah
 ----
 Charge =  0 Multiplicity = 1

                         Standard orientation:
 ---------------------------------------------------------------------
 Center     Atomic      Atomic             Coordinates (Angstroms)
 Number     Number       Type             X           Y           Z
 ---------------------------------------------------------------------
      1          6           0       -0.000000    0.448121    0.000000
      2          6           0        1.226084   -0.114904   -0.000000
      3          1           0       -0.151888    1.529619    0.000000
      4          8           0       -1.205644   -0.211424    0.000000
      5          1           0        2.106505    0.527062   -0.000000
      6          1           0        1.367629   -1.199216   -0.000000
      7          1           0       -1.033592   -1.165377    0.000000
 ---------------------------------------------------------------------

 SCF Done:  E(RHF) =  -152.917872502     A.U. after    1 cycles
 E2 =    -0.4828542951D+00 EUMP2 =    -0.15340072679707D+03
 E2 =    -0.4828542951D+00 EUMP2 =    -0.15340072679707D+03
 SCF Done:  E(RHF) =  -152.917868780     A.U. after    8 cycles
 E2 =    -0.4828567047D+00 EUMP2 =    -0.15340072548436D+03
 E2 =    -0.4828567047D+00 EUMP2 =    -0.15340072548436D+03
 SCF Done:  E(RHF) =  -152.917868780     A.U. after    8 cycles
 E2 =    -0.4828567047D+00 EUMP2 =    -0.15340072548436D+03
 E2 =    -0.4828567047D+00 EUMP2 =    -0.15340072548436D+03
 SCF Done:  E(RHF) =  -152.917881811     A.U. after    9 cycles
 E2 =    -0.4828429634D+00 EUMP2 =    -0.15340072477420D+03
 E2 =    -0.4828429634D+00 EUMP2 =    -0.15340072477420D+03
 SCF Done:  E(RHF) =  -152.917858781     A.U. after    9 cycles
 E2 =    -0.4828668996D+00 EUMP2 =    -0.15340072568077D+03
 E2 =    -0.4828668996D+00 EUMP2 =    -0.15340072568077D+03
 SCF Done:  E(RHF) =  -152.917868001     A.U. after    9 cycles
 E2 =    -0.4828554273D+00 EUMP2 =    -0.15340072342834D+03
 E2 =    -0.4828554273D+00 EUMP2 =    -0.15340072342834D+03
 E2 =    -0.4828554273D+00 EUMP2 =    -0.15340072342834D+03
 E2 =    -0.4828554273D+00 EUMP2 =    -0.15340072342834D+03
 E2 =    -0.4828564232D+00 EUMP2 =    -0.15340072225302D+03
 E2 =    -0.4828564232D+00 EUMP2 =    -0.15340072225302D+03
 SCF Done:  E(RHF) =  -152.917698401     A.U. after   10 cycles
 E2 =    -0.4830107071D+00 EUMP2 =    -0.15340070910824D+03
 E2 =    -0.4830107071D+00 EUMP2 =    -0.15340070910824D+03
 SCF Done:  E(RHF) =  -152.918005408     A.U. after   10 cycles
 E2 =    -0.4827004612D+00 EUMP2 =    -0.15340070586899D+03
 E2 =    -0.4827004612D+00 EUMP2 =    -0.15340070586899D+03
 SCF Done:  E(RHF) =  -152.917974364     A.U. after   10 cycles
 E2 =    -0.4826829864D+00 EUMP2 =    -0.15340065735039D+03
 E2 =    -0.4826829864D+00 EUMP2 =    -0.15340065735039D+03
 SCF Done:  E(RHF) =  -152.917632564     A.U. after   10 cycles
 E2 =    -0.4830259622D+00 EUMP2 =    -0.15340065852598D+03
 E2 =    -0.4830259622D+00 EUMP2 =    -0.15340065852598D+03
 SCF Done:  E(RHF) =  -152.917637493     A.U. after   10 cycles
 E2 =    -0.4830190497D+00 EUMP2 =    -0.15340065654294D+03
 E2 =    -0.4830190497D+00 EUMP2 =    -0.15340065654294D+03
 SCF Done:  E(RHF) =  -152.917963908     A.U. after   10 cycles
 E2 =    -0.4826902466D+00 EUMP2 =    -0.15340065415439D+03
 E2 =    -0.4826902466D+00 EUMP2 =    -0.15340065415439D+03
 SCF Done:  E(RHF) =  -152.917731033     A.U. after    8 cycles
 E2 =    -0.4829229151D+00 EUMP2 =    -0.15340065394828D+03
 E2 =    -0.4829229151D+00 EUMP2 =    -0.15340065394828D+03
 SCF Done:  E(RHF) =  -152.917866556     A.U. after    8 cycles
 E2 =    -0.4827850567D+00 EUMP2 =    -0.15340065161317D+03
 E2 =    -0.4827850567D+00 EUMP2 =    -0.15340065161317D+03
 SCF Done:  E(RHF) =  -152.918274851     A.U. after    9 cycles
 E2 =    -0.4823523910D+00 EUMP2 =    -0.15340062724247D+03
 E2 =    -0.4823523910D+00 EUMP2 =    -0.15340062724247D+03
 SCF Done:  E(RHF) =  -152.917274009     A.U. after    9 cycles
 E2 =    -0.4833580834D+00 EUMP2 =    -0.15340063209191D+03
 E2 =    -0.4833580834D+00 EUMP2 =    -0.15340063209191D+03

 Alpha  occ. eigenvalues --  -20.60530 -11.31422 -11.23107  -1.40236  -1.02113
 Alpha  occ. eigenvalues --   -0.82958  -0.67847  -0.66631  -0.57649  -0.54800
 Alpha  occ. eigenvalues --   -0.54244  -0.34981
 Alpha virt. eigenvalues --    0.03690   0.04518   0.05220   0.07070   0.11091
 Alpha virt. eigenvalues --    0.11849   0.12119   0.14012   0.15036   0.17402
 Alpha virt. eigenvalues --    0.18107   0.20393   0.21604   0.22086   0.25167

 Mulliken charges:
               1
     1  C    0.779478
     2  C    0.488492
     3  H   -0.268832
     4  O   -0.529057
     5  H   -0.273788
     6  H   -0.337286
     7  H    0.140993
 Sum of Mulliken charges =  -0.00000

 Dipole moment (field-independent basis, Debye):
    X=              0.6452    Y=             -0.7975    Z=              0.0000  Tot=              1.0258
 Quadrupole moment (field-independent basis, Debye-Ang):
   XX=            -20.8284   YY=            -14.8794   ZZ=            -21.7042
   XY=              1.1550   XZ=             -0.0000   YZ=              0.0000

  Exact polarizability:      41.525      -1.669      31.470      -0.000      -0.000      25.582
 Approx polarizability:      32.872      -2.810      27.271      -0.000      -0.000      23.068

                      1                      2                      3
                     A"                     A'                     A"
 Frequencies --    440.6076               481.9936               706.0841
 Red. masses --      1.1281                 2.0691                 1.5210
 Frc consts  --      0.1290                 0.2832                 0.4468
 IR Inten    --     89.9000                12.0256                 1.5600

                      4                      5                      6
                     A"                     A'                     A"
 Frequencies --    820.0914               947.1697               979.8633
 Red. masses --      1.3709                 1.7360                 1.1258
 Frc consts  --      0.5432                 0.9176                 0.6368
 IR Inten    --     52.6829                14.5722                43.9092

                      7                      8                      9
                     A'                     A'                     A'
 Frequencies --   1109.1672              1314.9127              1347.6983
 Red. masses --      2.1126                 1.4585                 1.2653
 Frc consts  --      1.5313                 1.4857                 1.3541
 IR Inten    --    175.2109                 2.7157                 5.6790

                     10                     11                     12
                     A'                     A'                     A'
 Frequencies --   1440.2425              1690.4122              3192.0599
 Red. masses --      1.1592                 4.2934                 1.0614
 Frc consts  --      1.4167                 7.2283                 6.3718
 IR Inten    --     16.1160               151.0687                 3.8471

                     13                     14                     15
                     A'                     A'                     A'
 Frequencies --   3251.3636              3309.4327              3790.6467
 Red. masses --      1.0950                 1.1157                 1.0657
 Frc consts  --      6.8202                 7.1993                 9.0220
 IR Inten    --      3.8978                 5.5535                43.5140

 - Thermochemistry -
 -------------------
 Temperature   298.150 Kelvin.  Pressure   1.00000 Atm.
 Atom     1 has atomic number  6 and mass  12.00000

 Molecular mass:    44.02621 amu.
 Principal axes and moments of inertia in atomic units:
                           1         2         3
     Eigenvalues --    30.47839 174.38265 204.86104
           X            0.99749  -0.07086   0.00000
           Y            0.07086   0.99749  -0.00000
           Z           -0.00000   0.00000   1.00000
 This molecule is an asymmetric top.
 Rotational symmetry number  1.
 Rotational temperatures (Kelvin)      2.84181     0.49669     0.42279
 Rotational constants (GHZ):          59.21380    10.34932     8.80959
 Zero-point vibrational energy     148467.0 (Joules/Mol)
                                   35.48447 (Kcal/Mol)
 Warning -- explicit consideration of   2 degrees of freedom as
           vibrations may cause significant error
 Vibrational temperatures:    633.94   693.48  1015.90  1179.93  1362.77
          (Kelvin)           1409.80  1595.84  1891.87  1939.04  2072.19
                             2432.13  4592.66  4677.99  4761.54  5453.90

 Zero-point correction=                           0.056548 (Hartree/Particle)
 Thermal correction to Energy=                    0.060211
 Thermal correction to Enthalpy=                  0.061155
 Thermal correction to Gibbs Free Energy=         0.032052
 Sum of electronic and zero-point Energies=           -153.344179
 Sum of electronic and thermal Energies=              -153.340516
 Sum of electronic and thermal Enthalpies=            -153.339572
 Sum of electronic and thermal Free Energies=         -153.368675

                     E (Thermal)             CV                S
                      KCal/Mol        Cal/Mol-Kelvin    Cal/Mol-Kelvin
 Total                   37.783             11.577             61.253
 Electronic               0.000              0.000              0.000
 Translational            0.889              2.981             37.273
 Rotational               0.889              2.981             21.615
 Vibrational             36.005              5.616              2.366
 Vibration     1          0.801              1.382              0.825
 Vibration     2          0.838              1.290              0.705

 ## DEPERTURBED TRANSITIONS MOMENTS ##

 Electric dipole : Fundamental Bands
 ------------------------------------------------------------------------

 ## AFTER VARIATIONAL CORRECTION

 Electric dipole : Fundamental Bands
 ------------------------------------------------------------------------

 Optimization completed.
    -- Stationary point found.
 Normal termination of Gaussian 16 at Fri Mar 21 11:29:27 2025.
