 Gaussian 16, Revision C.01,
 Gaussian 16:  EM64L-G16RevC.01  3-Jul-2019

 ----------------------------------------------
 # MP2/aug-cc-pVDZ opt freq=(vibrot,anharmonic)
 ----------------------------------------------

 ----
 blah
 ----
 Symbolic Z-matrix:
 Charge =  0 Multiplicity = 1

 SCF Done:  E(RHF) =  -265.663717670     A.U. after   14 cycles
 E2 =    -0.7976086892D+00 EUMP2 =    -0.26646132635962D+03
 SCF Done:  E(RHF) =  -265.662766449     A.U. after   12 cycles
 E2 =    -0.8003986779D+00 EUMP2 =    -0.26646316512651D+03
 SCF Done:  E(RHF) =  -265.662876743     A.U. after   11 cycles
 E2 =    -0.8004348349D+00 EUMP2 =    -0.26646331157827D+03
 SCF Done:  E(RHF) =  -265.662964327     A.U. after   11 cycles
 E2 =    -0.8003624363D+00 EUMP2 =    -0.26646332676343D+03
 SCF Done:  E(RHF) =  -265.663018843     A.U. after    9 cycles
 E2 =    -0.8003085511D+00 EUMP2 =    -0.26646332739456D+03
 Optimization completed.
    -- Stationary point found.
 Normal termination of Gaussian 16 at Sat Mar 22 16:20:32 2025.

 ----------------------------------------------------------------------
 #N Geom=AllCheck Guess=TCheck SCRF=Check GenChk RMP2(FC)/Aug-CC-pVDZ F
 req
 ----------------------------------------------------------------------

 Structure from the checkpoint file:  "/scr/Gau-12951.chk"
 ----
 blah
 ----
 Charge =  0 Multiplicity = 1

                         Standard orientation:
 ---------------------------------------------------------------------
 Center     Atomic      Atomic             Coordinates (Angstroms)
 Number     Number       Type             X           Y           Z
 ---------------------------------------------------------------------
      1          6           0        1.091956    0.341191   -0.000006
      2          6           0       -0.056815   -0.380793   -0.000081
      3          1           0        1.071819    1.437689   -0.000001
      4          8           0        2.317788   -0.252606    0.000049
      5          6           0       -1.333226    0.337861   -0.000162
      6          1           0        3.004798    0.427756    0.000090
      7          8           0       -2.441377   -0.201725    0.000114
      8          1           0       -0.049112   -1.473759   -0.000087
      9          1           0       -1.250281    1.453411    0.000188
 ---------------------------------------------------------------------

 SCF Done:  E(RHF) =  -265.663018843     A.U. after    1 cycles
 E2 =    -0.8003085485D+00 EUMP2 =    -0.26646332739196D+03
 E2 =    -0.8003085485D+00 EUMP2 =    -0.26646332739196D+03
 SCF Done:  E(RHF) =  -265.663018324     A.U. after   10 cycles
 E2 =    -0.8003089044D+00 EUMP2 =    -0.26646332722879D+03
 E2 =    -0.8003089044D+00 EUMP2 =    -0.26646332722879D+03
 SCF Done:  E(RHF) =  -265.663018376     A.U. after   10 cycles
 E2 =    -0.8003088901D+00 EUMP2 =    -0.26646332726601D+03
 E2 =    -0.8003088901D+00 EUMP2 =    -0.26646332726601D+03
 SCF Done:  E(RHF) =  -265.663017693     A.U. after    9 cycles
 E2 =    -0.8003094481D+00 EUMP2 =    -0.26646332714162D+03
 E2 =    -0.8003094481D+00 EUMP2 =    -0.26646332714162D+03
 SCF Done:  E(RHF) =  -265.663018538     A.U. after    9 cycles
 E2 =    -0.8003084505D+00 EUMP2 =    -0.26646332698887D+03
 E2 =    -0.8003084505D+00 EUMP2 =    -0.26646332698887D+03
 E2 =    -0.8003096941D+00 EUMP2 =    -0.26646332671167D+03
 E2 =    -0.8003096941D+00 EUMP2 =    -0.26646332671167D+03
 E2 =    -0.8003097026D+00 EUMP2 =    -0.26646332668640D+03
 E2 =    -0.8003097026D+00 EUMP2 =    -0.26646332668640D+03
 E2 =    -0.8003102671D+00 EUMP2 =    -0.26646332617395D+03
 SCF Done:  E(RHF) =  -265.663379175     A.U. after   10 cycles
 E2 =    -0.7999294876D+00 EUMP2 =    -0.26646330866221D+03
 E2 =    -0.7999294876D+00 EUMP2 =    -0.26646330866221D+03
 SCF Done:  E(RHF) =  -265.662616447     A.U. after   10 cycles
 E2 =    -0.8006896186D+00 EUMP2 =    -0.26646330606549D+03
 E2 =    -0.8006896186D+00 EUMP2 =    -0.26646330606549D+03
 SCF Done:  E(RHF) =  -265.662757652     A.U. after   10 cycles
 E2 =    -0.8005125441D+00 EUMP2 =    -0.26646327019650D+03
 E2 =    -0.8005125441D+00 EUMP2 =    -0.26646327019650D+03
 SCF Done:  E(RHF) =  -265.663160796     A.U. after   10 cycles
 E2 =    -0.8001072271D+00 EUMP2 =    -0.26646326802306D+03
 E2 =    -0.8001072271D+00 EUMP2 =    -0.26646326802306D+03
 SCF Done:  E(RHF) =  -265.662796779     A.U. after   10 cycles
 E2 =    -0.8004629804D+00 EUMP2 =    -0.26646325975895D+03
 E2 =    -0.8004629804D+00 EUMP2 =    -0.26646325975895D+03
 SCF Done:  E(RHF) =  -265.663101677     A.U. after   10 cycles
 E2 =    -0.8001553596D+00 EUMP2 =    -0.26646325703656D+03
 E2 =    -0.8001553596D+00 EUMP2 =    -0.26646325703656D+03
 SCF Done:  E(RHF) =  -265.663111351     A.U. after    9 cycles
 E2 =    -0.8001435224D+00 EUMP2 =    -0.26646325487353D+03
 E2 =    -0.8001435224D+00 EUMP2 =    -0.26646325487353D+03
 SCF Done:  E(RHF) =  -265.662783481     A.U. after    9 cycles
 E2 =    -0.8004740315D+00 EUMP2 =    -0.26646325751261D+03
 E2 =    -0.8004740315D+00 EUMP2 =    -0.26646325751261D+03
 SCF Done:  E(RHF) =  -265.662425176     A.U. after   10 cycles
 E2 =    -0.8008052888D+00 EUMP2 =    -0.26646323046504D+03
 E2 =    -0.8008052888D+00 EUMP2 =    -0.26646323046504D+03
 SCF Done:  E(RHF) =  -265.663412550     A.U. after   10 cycles
 E2 =    -0.7998135594D+00 EUMP2 =    -0.26646322610921D+03
 E2 =    -0.7998135594D+00 EUMP2 =    -0.26646322610921D+03

 Alpha  occ. eigenvalues --  -20.64014 -20.55578 -11.35683 -11.34445 -11.25324
 Alpha  occ. eigenvalues --   -1.44669  -1.37284  -1.08283  -0.88687  -0.80086
 Alpha  occ. eigenvalues --   -0.75845  -0.68921  -0.62247  -0.61360  -0.60953
 Alpha  occ. eigenvalues --   -0.55827  -0.52637  -0.42454  -0.37031
 Alpha virt. eigenvalues --    0.01871   0.04230   0.05066   0.06681   0.08244
 Alpha virt. eigenvalues --    0.09256   0.11232   0.11808   0.12788   0.13180
 Alpha virt. eigenvalues --    0.14153   0.15444   0.16267   0.17276   0.18134

 Mulliken charges:
               1
     1  C    0.922881
     2  C    0.430443
     3  H   -0.404475
     4  O   -0.587564
     5  C    0.544312
     6  H    0.188714
     7  O   -0.545494
     8  H   -0.380809
     9  H   -0.168008
 Sum of Mulliken charges =  -0.00000

 Dipole moment (field-independent basis, Debye):
    X=              4.4831    Y=              2.4540    Z=             -0.0001  Tot=              5.1109
 Quadrupole moment (field-independent basis, Debye-Ang):
   XX=            -33.5171   YY=            -27.4554   ZZ=            -31.2461
   XY=              2.9987   XZ=              0.0010   YZ=              0.0003

  Exact polarizability:      76.737       4.890      43.383       0.000       0.000      31.203
 Approx polarizability:      55.161       6.547      37.885      -0.001      -0.000      30.425

                      1                      2                      3
                      A                      A                      A
 Frequencies --    145.7361               219.3192               319.5188
 Red. masses --      5.5502                 4.6338                 2.1955
 Frc consts  --      0.0695                 0.1313                 0.1321
 IR Inten    --      0.5133                 4.5052                22.1506

                      4                      5                      6
                      A                      A                      A
 Frequencies --    422.1197               488.6851               555.6227
 Red. masses --      1.1865                 8.0057                 3.4800
 Frc consts  --      0.1246                 1.1264                 0.6330
 IR Inten    --     90.4772                12.5040                28.5574

                      7                      8                      9
                      A                      A                      A
 Frequencies --    836.3807               951.5669              1002.7451
 Red. masses --      1.6851                 1.1693                 1.6201
 Frc consts  --      0.6945                 0.6238                 0.9598
 IR Inten    --      3.9553                43.9861                 3.8436

                     10                     11                     12
                      A                      A                      A
 Frequencies --   1151.3609              1162.6856              1202.6546
 Red. masses --      2.0270                 1.4443                 4.1560
 Frc consts  --      1.5832                 1.1503                 3.5417
 IR Inten    --     48.2243                73.3809               151.1293

                     13                     14                     15
                      A                      A                      A
 Frequencies --   1326.5089              1346.7264              1419.8562
 Red. masses --      1.3591                 1.3703                 1.3041
 Frc consts  --      1.4091                 1.4643                 1.5490
 IR Inten    --    129.7879                45.9378                 2.7354

                     16                     17                     18
                      A                      A                      A
 Frequencies --   1696.0529              1721.5569              2936.4459
 Red. masses --      7.4951                 5.2600                 1.0832
 Frc consts  --     12.7030                 9.1850                 5.5029
 IR Inten    --     18.3466               462.4534                94.8510

                     19                     20                     21
                      A                      A                      A
 Frequencies --   3194.9668              3245.6109              3828.9550
 Red. masses --      1.0924                 1.0942                 1.0672
 Frc consts  --      6.5700                 6.7909                 9.2184
 IR Inten    --      8.2604                 1.3193               150.9584

 - Thermochemistry -
 -------------------
 Temperature   298.150 Kelvin.  Pressure   1.00000 Atm.
 Atom     1 has atomic number  6 and mass  12.00000

 Molecular mass:    72.02113 amu.
 Principal axes and moments of inertia in atomic units:
                           1         2         3
     Eigenvalues --    45.39273 816.61180 862.00453
           X            0.99999   0.00529   0.00000
           Y           -0.00529   0.99999   0.00003
           Z           -0.00000  -0.00003   1.00000
 This molecule is an asymmetric top.
 Rotational symmetry number  1.
 Rotational temperatures (Kelvin)      1.90810     0.10606     0.10048
 Rotational constants (GHZ):          39.75837     2.21004     2.09366
 Zero-point vibrational energy     174505.7 (Joules/Mol)
                                   41.70786 (Kcal/Mol)
 Warning -- explicit consideration of   6 degrees of freedom as
           vibrations may cause significant error
 Vibrational temperatures:    209.68   315.55   459.72   607.34   703.11
          (Kelvin)            799.42  1203.37  1369.09  1442.73  1656.55
                             1672.85  1730.35  1908.55  1937.64  2042.86
                             2440.24  2476.94  4224.89  4596.84  4669.71
                             5509.01

 Zero-point correction=                           0.066466 (Hartree/Particle)
 Thermal correction to Energy=                    0.071820
 Thermal correction to Enthalpy=                  0.072764
 Thermal correction to Gibbs Free Energy=         0.038355
 Sum of electronic and zero-point Energies=           -266.396862
 Sum of electronic and thermal Energies=              -266.391508
 Sum of electronic and thermal Enthalpies=            -266.390564
 Sum of electronic and thermal Free Energies=         -266.424972

                     E (Thermal)             CV                S
                      KCal/Mol        Cal/Mol-Kelvin    Cal/Mol-Kelvin
 Total                   45.067             17.647             72.419
 Electronic               0.000              0.000              0.000
 Translational            0.889              2.981             38.740
 Rotational               0.889              2.981             24.972
 Vibrational             43.290             11.685              8.707
 Vibration     1          0.617              1.907              2.727
 Vibration     2          0.647              1.812              1.965
 Vibration     3          0.705              1.636              1.313
 Vibration     4          0.784              1.422              0.885
 Vibration     5          0.845              1.275              0.687
 Vibration     6          0.911              1.127              0.533

 ## DEPERTURBED TRANSITIONS MOMENTS ##

 Electric dipole : Fundamental Bands
 ------------------------------------------------------------------------

 ## AFTER VARIATIONAL CORRECTION

 Electric dipole : Fundamental Bands
 ------------------------------------------------------------------------

 Optimization completed.
    -- Stationary point found.
 Normal termination of Gaussian 16 at Sat Mar 22 17:28:38 2025.
