 Gaussian 16, Revision C.01,
 Gaussian 16:  EM64L-G16RevC.01  3-Jul-2019

 ----------------------------------------------
 # MP2/aug-cc-pVTZ opt freq=(vibrot,anharmonic)
 ----------------------------------------------

 ----
 blah
 ----
 Symbolic Z-matrix:
 Charge =  0 Multiplicity = 1

 SCF Done:  E(RHF) =  -152.957238663     A.U. after   12 cycles
 E2 =    -0.5806240858D+00 EUMP2 =    -0.15353786274892D+03
 SCF Done:  E(RHF) =  -152.958002141     A.U. after   10 cycles
 E2 =    -0.5802121083D+00 EUMP2 =    -0.15353821424954D+03
 SCF Done:  E(RHF) =  -152.958104924     A.U. after    8 cycles
 E2 =    -0.5801286834D+00 EUMP2 =    -0.15353823360735D+03
 SCF Done:  E(RHF) =  -152.958110013     A.U. after    8 cycles
 E2 =    -0.5801259656D+00 EUMP2 =    -0.15353823597839D+03
 Optimization completed.
    -- Stationary point found.
 Normal termination of Gaussian 16 at Fri Mar 21 15:55:13 2025.

 ----------------------------------------------------------------------
 #N Geom=AllCheck Guess=TCheck SCRF=Check GenChk RMP2(FC)/Aug-CC-pVTZ F
 req
 ----------------------------------------------------------------------

 Structure from the checkpoint file:  "/scr/Gau-7388.chk"
 ----
 blah
 ----
 Charge =  0 Multiplicity = 1

                         Standard orientation:
 ---------------------------------------------------------------------
 Center     Atomic      Atomic             Coordinates (Angstroms)
 Number     Number       Type             X           Y           Z
 ---------------------------------------------------------------------
      1          6           0        0.000000    0.444282   -0.000000
      2          6           0        1.213654   -0.109052    0.000000
      3          1           0       -0.151991    1.514119   -0.000000
      4          8           0       -1.193320   -0.213468    0.000000
      5          1           0        2.083627    0.526724   -0.000000
      6          1           0        1.353168   -1.181594    0.000000
      7          1           0       -1.020166   -1.162889    0.000000
 ---------------------------------------------------------------------

 SCF Done:  E(RHF) =  -152.958110013     A.U. after    1 cycles
 E2 =    -0.5801259703D+00 EUMP2 =    -0.15353823598309D+03
 E2 =    -0.5801259703D+00 EUMP2 =    -0.15353823598309D+03
 SCF Done:  E(RHF) =  -152.958106407     A.U. after    8 cycles
 E2 =    -0.5801282352D+00 EUMP2 =    -0.15353823464270D+03
 E2 =    -0.5801282352D+00 EUMP2 =    -0.15353823464270D+03
 SCF Done:  E(RHF) =  -152.958106407     A.U. after    8 cycles
 E2 =    -0.5801282352D+00 EUMP2 =    -0.15353823464270D+03
 E2 =    -0.5801282352D+00 EUMP2 =    -0.15353823464270D+03
 SCF Done:  E(RHF) =  -152.958113284     A.U. after    7 cycles
 E2 =    -0.5801209570D+00 EUMP2 =    -0.15353823424092D+03
 E2 =    -0.5801209570D+00 EUMP2 =    -0.15353823424092D+03
 SCF Done:  E(RHF) =  -152.958102394     A.U. after    7 cycles
 E2 =    -0.5801321512D+00 EUMP2 =    -0.15353823454520D+03
 E2 =    -0.5801321512D+00 EUMP2 =    -0.15353823454520D+03
 SCF Done:  E(RHF) =  -152.958105583     A.U. after    8 cycles
 E2 =    -0.5801269615D+00 EUMP2 =    -0.15353823254417D+03
 E2 =    -0.5801269615D+00 EUMP2 =    -0.15353823254417D+03
 E2 =    -0.5801269615D+00 EUMP2 =    -0.15353823254417D+03
 E2 =    -0.5801269615D+00 EUMP2 =    -0.15353823254417D+03
 E2 =    -0.5801279340D+00 EUMP2 =    -0.15353823141024D+03
 E2 =    -0.5801279340D+00 EUMP2 =    -0.15353823141024D+03
 SCF Done:  E(RHF) =  -152.957986626     A.U. after    8 cycles
 E2 =    -0.5802310042D+00 EUMP2 =    -0.15353821762972D+03
 E2 =    -0.5802310042D+00 EUMP2 =    -0.15353821762972D+03
 SCF Done:  E(RHF) =  -152.958191252     A.U. after    8 cycles
 E2 =    -0.5800241649D+00 EUMP2 =    -0.15353821541687D+03
 E2 =    -0.5800241649D+00 EUMP2 =    -0.15353821541687D+03
 SCF Done:  E(RHF) =  -152.958134810     A.U. after    9 cycles
 E2 =    -0.5800316678D+00 EUMP2 =    -0.15353816647800D+03
 E2 =    -0.5800316678D+00 EUMP2 =    -0.15353816647800D+03
 SCF Done:  E(RHF) =  -152.957944751     A.U. after    9 cycles
 E2 =    -0.5802231372D+00 EUMP2 =    -0.15353816788819D+03
 E2 =    -0.5802231372D+00 EUMP2 =    -0.15353816788819D+03
 SCF Done:  E(RHF) =  -152.957924749     A.U. after    9 cycles
 E2 =    -0.5802406380D+00 EUMP2 =    -0.15353816538687D+03
 E2 =    -0.5802406380D+00 EUMP2 =    -0.15353816538687D+03
 SCF Done:  E(RHF) =  -152.958150114     A.U. after    9 cycles
 E2 =    -0.5800144955D+00 EUMP2 =    -0.15353816460927D+03
 E2 =    -0.5800144955D+00 EUMP2 =    -0.15353816460927D+03
 SCF Done:  E(RHF) =  -152.957991496     A.U. after    8 cycles
 E2 =    -0.5801724960D+00 EUMP2 =    -0.15353816399156D+03
 E2 =    -0.5801724960D+00 EUMP2 =    -0.15353816399156D+03
 SCF Done:  E(RHF) =  -152.958079142     A.U. after    8 cycles
 E2 =    -0.5800814675D+00 EUMP2 =    -0.15353816060992D+03
 E2 =    -0.5800814675D+00 EUMP2 =    -0.15353816060992D+03
 SCF Done:  E(RHF) =  -152.958478217     A.U. after    8 cycles
 E2 =    -0.5796563418D+00 EUMP2 =    -0.15353813455865D+03
 E2 =    -0.5796563418D+00 EUMP2 =    -0.15353813455865D+03
 SCF Done:  E(RHF) =  -152.957544053     A.U. after    8 cycles
 E2 =    -0.5805974915D+00 EUMP2 =    -0.15353814154497D+03
 E2 =    -0.5805974915D+00 EUMP2 =    -0.15353814154497D+03

 Alpha  occ. eigenvalues --  -20.59519 -11.30141 -11.21696  -1.40384  -1.02390
 Alpha  occ. eigenvalues --   -0.83191  -0.68048  -0.67100  -0.58037  -0.54959
 Alpha  occ. eigenvalues --   -0.54405  -0.35176
 Alpha virt. eigenvalues --    0.02977   0.03796   0.04239   0.06063   0.09206
 Alpha virt. eigenvalues --    0.10098   0.10200   0.11654   0.12420   0.14373
 Alpha virt. eigenvalues --    0.14415   0.17070   0.17776   0.18245   0.19900

 Mulliken charges:
               1
     1  C   -0.397467
     2  C   -0.897917
     3  H    0.667233
     4  O   -0.433909
     5  H    0.392827
     6  H    0.477017
     7  H    0.192216
 Sum of Mulliken charges =  -0.00000

 Dipole moment (field-independent basis, Debye):
    X=              0.6351    Y=             -0.8013    Z=             -0.0000  Tot=              1.0225
 Quadrupole moment (field-independent basis, Debye-Ang):
   XX=            -20.5253   YY=            -14.6682   ZZ=            -21.3417
   XY=              1.1209   XZ=             -0.0000   YZ=              0.0000

  Exact polarizability:      40.882      -1.393      31.191       0.000      -0.000      25.371
 Approx polarizability:      32.182      -2.536      26.927      -0.000      -0.000      22.893

                      1                      2                      3
                     A"                     A'                     A"
 Frequencies --    444.6145               484.7665               713.0775
 Red. masses --      1.1202                 2.0469                 1.5150
 Frc consts  --      0.1305                 0.2834                 0.4539
 IR Inten    --     89.4199                12.5158                 1.2758

                      4                      5                      6
                     A"                     A'                     A"
 Frequencies --    822.3987               958.1391               994.4126
 Red. masses --      1.3730                 1.6868                 1.1354
 Frc consts  --      0.5471                 0.9124                 0.6615
 IR Inten    --     56.3627                11.0653                37.5209

                      7                      8                      9
                     A'                     A'                     A'
 Frequencies --   1118.0111              1324.4060              1353.4467
 Red. masses --      2.0648                 1.5357                 1.2557
 Frc consts  --      1.5206                 1.5870                 1.3553
 IR Inten    --    181.8525                 1.5540                 7.9003

                     10                     11                     12
                     A'                     A'                     A'
 Frequencies --   1449.5195              1696.9307              3190.6277
 Red. masses --      1.1668                 4.2847                 1.0609
 Frc consts  --      1.4444                 7.2694                 6.3630
 IR Inten    --     16.2092               154.8302                 4.0328

                     13                     14                     15
                     A'                     A'                     A'
 Frequencies --   3240.7314              3301.8794              3806.2097
 Red. masses --      1.0953                 1.1155                 1.0654
 Frc consts  --      6.7775                 7.1653                 9.0937
 IR Inten    --      3.2963                 3.6395                47.6801

 - Thermochemistry -
 -------------------
 Temperature   298.150 Kelvin.  Pressure   1.00000 Atm.
 Atom     1 has atomic number  6 and mass  12.00000

 Molecular mass:    44.02621 amu.
 Principal axes and moments of inertia in atomic units:
                           1         2         3
     Eigenvalues --    29.90777 170.89187 200.79964
           X            0.99717  -0.07519   0.00000
           Y            0.07519   0.99717   0.00000
           Z            0.00000  -0.00000   1.00000
 This molecule is an asymmetric top.
 Rotational symmetry number  1.
 Rotational temperatures (Kelvin)      2.89603     0.50683     0.43135
 Rotational constants (GHZ):          60.34355    10.56072     8.98777
 Zero-point vibrational energy     148930.1 (Joules/Mol)
                                   35.59515 (Kcal/Mol)
 Warning -- explicit consideration of   2 degrees of freedom as
           vibrations may cause significant error
 Vibrational temperatures:    639.70   697.47  1025.96  1183.25  1378.55
          (Kelvin)           1430.74  1608.57  1905.52  1947.31  2085.54
                             2441.50  4590.60  4662.69  4750.67  5476.29

 Zero-point correction=                           0.056724 (Hartree/Particle)
 Thermal correction to Energy=                    0.060372
 Thermal correction to Enthalpy=                  0.061316
 Thermal correction to Gibbs Free Energy=         0.032263
 Sum of electronic and zero-point Energies=           -153.481511
 Sum of electronic and thermal Energies=              -153.477864
 Sum of electronic and thermal Enthalpies=            -153.476920
 Sum of electronic and thermal Free Energies=         -153.505973

                     E (Thermal)             CV                S
                      KCal/Mol        Cal/Mol-Kelvin    Cal/Mol-Kelvin
 Total                   37.884             11.498             61.149
 Electronic               0.000              0.000              0.000
 Translational            0.889              2.981             37.273
 Rotational               0.889              2.981             21.556
 Vibrational             36.107              5.536              2.321
 Vibration     1          0.804              1.373              0.812
 Vibration     2          0.841              1.284              0.697

 ## DEPERTURBED TRANSITIONS MOMENTS ##

 Electric dipole : Fundamental Bands
 ------------------------------------------------------------------------

 ## AFTER VARIATIONAL CORRECTION

 Electric dipole : Fundamental Bands
 ------------------------------------------------------------------------

 Optimization completed.
    -- Stationary point found.
 Normal termination of Gaussian 16 at Fri Mar 21 19:10:09 2025.
