 Gaussian 16, Revision C.01,
 Gaussian 16:  EM64L-G16RevC.01  3-Jul-2019

 ----------------------------------------------
 # MP2/aug-cc-pVDZ opt freq=(vibrot,anharmonic)
 ----------------------------------------------

 ----
 blah
 ----
 Symbolic Z-matrix:
 Charge =  0 Multiplicity = 1

 SCF Done:  E(RHF) =  -265.666129136     A.U. after   14 cycles
 E2 =    -0.7972828430D+00 EUMP2 =    -0.26646341197918D+03
 SCF Done:  E(RHF) =  -265.664987575     A.U. after   12 cycles
 E2 =    -0.8002888001D+00 EUMP2 =    -0.26646527637485D+03
 SCF Done:  E(RHF) =  -265.665307500     A.U. after   11 cycles
 E2 =    -0.8001309555D+00 EUMP2 =    -0.26646543845597D+03
 SCF Done:  E(RHF) =  -265.665480821     A.U. after   10 cycles
 E2 =    -0.7999737962D+00 EUMP2 =    -0.26646545461682D+03
 Optimization completed.
    -- Stationary point found.
 Normal termination of Gaussian 16 at Sat Mar 22 18:41:46 2025.

 ----------------------------------------------------------------------
 #N Geom=AllCheck Guess=TCheck SCRF=Check GenChk RMP2(FC)/Aug-CC-pVDZ F
 req
 ----------------------------------------------------------------------

 Structure from the checkpoint file:  "/scr/Gau-98792.chk"
 ----
 blah
 ----
 Charge =  0 Multiplicity = 1

                         Standard orientation:
 ---------------------------------------------------------------------
 Center     Atomic      Atomic             Coordinates (Angstroms)
 Number     Number       Type             X           Y           Z
 ---------------------------------------------------------------------
      1          6           0        1.099048    0.378544   -0.000001
      2          6           0       -0.043664   -0.357624   -0.000036
      3          1           0        1.077857    1.472229    0.000004
      4          8           0        2.373678   -0.088437    0.000024
      5          6           0       -1.334585    0.335605   -0.000070
      6          1           0        2.355363   -1.058877    0.000017
      7          8           0       -2.429375   -0.230494    0.000049
      8          1           0       -0.037735   -1.452735   -0.000043
      9          1           0       -1.274706    1.451687    0.000085
 ---------------------------------------------------------------------

 SCF Done:  E(RHF) =  -265.665480821     A.U. after    1 cycles
 E2 =    -0.7999737962D+00 EUMP2 =    -0.26646545461689D+03
 E2 =    -0.7999737962D+00 EUMP2 =    -0.26646545461689D+03
 SCF Done:  E(RHF) =  -265.665480323     A.U. after   10 cycles
 E2 =    -0.7999741384D+00 EUMP2 =    -0.26646545446117D+03
 E2 =    -0.7999741384D+00 EUMP2 =    -0.26646545446117D+03
 SCF Done:  E(RHF) =  -265.665480345     A.U. after   10 cycles
 E2 =    -0.7999741329D+00 EUMP2 =    -0.26646545447787D+03
 E2 =    -0.7999741329D+00 EUMP2 =    -0.26646545447787D+03
 SCF Done:  E(RHF) =  -265.665479215     A.U. after    8 cycles
 E2 =    -0.7999755172D+00 EUMP2 =    -0.26646545473229D+03
 E2 =    -0.7999755172D+00 EUMP2 =    -0.26646545473229D+03
 SCF Done:  E(RHF) =  -265.665480965     A.U. after    8 cycles
 E2 =    -0.7999728900D+00 EUMP2 =    -0.26646545385477D+03
 E2 =    -0.7999728900D+00 EUMP2 =    -0.26646545385477D+03
 SCF Done:  E(RHF) =  -265.665479349     A.U. after   10 cycles
 E2 =    -0.7999745311D+00 EUMP2 =    -0.26646545387989D+03
 E2 =    -0.7999745311D+00 EUMP2 =    -0.26646545387989D+03
 E2 =    -0.7999745292D+00 EUMP2 =    -0.26646545389290D+03
 E2 =    -0.7999745292D+00 EUMP2 =    -0.26646545389290D+03
 E2 =    -0.8000408438D+00 EUMP2 =    -0.26646545314154D+03
 E2 =    -0.8000408438D+00 EUMP2 =    -0.26646545314154D+03
 SCF Done:  E(RHF) =  -265.665874971     A.U. after   10 cycles
 E2 =    -0.7995617480D+00 EUMP2 =    -0.26646543671919D+03
 E2 =    -0.7995617480D+00 EUMP2 =    -0.26646543671919D+03
 SCF Done:  E(RHF) =  -265.665045627     A.U. after   10 cycles
 E2 =    -0.8003872591D+00 EUMP2 =    -0.26646543288607D+03
 E2 =    -0.8003872591D+00 EUMP2 =    -0.26646543288607D+03
 SCF Done:  E(RHF) =  -265.665219922     A.U. after   10 cycles
 E2 =    -0.8001749389D+00 EUMP2 =    -0.26646539486100D+03
 E2 =    -0.8001749389D+00 EUMP2 =    -0.26646539486100D+03
 SCF Done:  E(RHF) =  -265.665621556     A.U. after   10 cycles
 E2 =    -0.7997753048D+00 EUMP2 =    -0.26646539686117D+03
 E2 =    -0.7997753048D+00 EUMP2 =    -0.26646539686117D+03
 SCF Done:  E(RHF) =  -265.665580842     A.U. after    9 cycles
 E2 =    -0.7998041583D+00 EUMP2 =    -0.26646538500070D+03
 E2 =    -0.7998041583D+00 EUMP2 =    -0.26646538500070D+03
 SCF Done:  E(RHF) =  -265.665240678     A.U. after    9 cycles
 E2 =    -0.8001436709D+00 EUMP2 =    -0.26646538434922D+03
 E2 =    -0.8001436709D+00 EUMP2 =    -0.26646538434922D+03
 SCF Done:  E(RHF) =  -265.665235574     A.U. after   10 cycles
 E2 =    -0.8001496997D+00 EUMP2 =    -0.26646538527357D+03
 E2 =    -0.8001496997D+00 EUMP2 =    -0.26646538527357D+03
 SCF Done:  E(RHF) =  -265.665583423     A.U. after   10 cycles
 E2 =    -0.7997989745D+00 EUMP2 =    -0.26646538239744D+03
 E2 =    -0.7997989745D+00 EUMP2 =    -0.26646538239744D+03
 SCF Done:  E(RHF) =  -265.665876931     A.U. after    9 cycles
 E2 =    -0.7994790539D+00 EUMP2 =    -0.26646535598491D+03
 E2 =    -0.7994790539D+00 EUMP2 =    -0.26646535598491D+03
 SCF Done:  E(RHF) =  -265.664890084     A.U. after    9 cycles
 E2 =    -0.8004705351D+00 EUMP2 =    -0.26646536061903D+03
 E2 =    -0.8004705351D+00 EUMP2 =    -0.26646536061903D+03

 Alpha  occ. eigenvalues --  -20.64443 -20.55848 -11.36058 -11.34781 -11.25864
 Alpha  occ. eigenvalues --   -1.44577  -1.37593  -1.08239  -0.89542  -0.81784
 Alpha  occ. eigenvalues --   -0.73459  -0.69145  -0.62759  -0.61572  -0.60610
 Alpha  occ. eigenvalues --   -0.57047  -0.52982  -0.42720  -0.37495
 Alpha virt. eigenvalues --    0.02688   0.03686   0.05313   0.06652   0.08578
 Alpha virt. eigenvalues --    0.09318   0.10839   0.11906   0.12238   0.13058
 Alpha virt. eigenvalues --    0.14226   0.14649   0.15549   0.16729   0.17297

 Mulliken charges:
               1
     1  C    0.646993
     2  C    0.683163
     3  H   -0.283733
     4  O   -0.516615
     5  C    0.522465
     6  H    0.158781
     7  O   -0.544879
     8  H   -0.503876
     9  H   -0.162299
 Sum of Mulliken charges =  -0.00000

 Dipole moment (field-independent basis, Debye):
    X=              3.3007    Y=             -0.0750    Z=             -0.0001  Tot=              3.3016
 Quadrupole moment (field-independent basis, Debye-Ang):
   XX=            -40.2394   YY=            -25.0660   ZZ=            -31.2703
   XY=             -4.9468   XZ=              0.0003   YZ=              0.0001

  Exact polarizability:      74.931       3.274      44.452      -0.000       0.000      31.198
 Approx polarizability:      53.945       5.820      39.000      -0.000      -0.000      30.419

                      1                      2                      3
                      A                      A                      A
 Frequencies --    145.4150               217.2676               327.6264
 Red. masses --      6.6801                 4.8158                 1.9262
 Frc consts  --      0.0832                 0.1339                 0.1218
 IR Inten    --      5.3774                20.2875                21.9132

                      4                      5                      6
                      A                      A                      A
 Frequencies --    487.2825               529.8231               562.6140
 Red. masses --      6.1620                 1.3299                 3.4328
 Frc consts  --      0.8621                 0.2200                 0.6402
 IR Inten    --      0.9866                69.0519                 2.5416

                      7                      8                      9
                      A                      A                      A
 Frequencies --    829.1569               972.6061              1008.0465
 Red. masses --      1.5761                 1.3063                 1.4564
 Frc consts  --      0.6384                 0.7281                 0.8720
 IR Inten    --     16.2390                38.8898                21.8279

                     10                     11                     12
                      A                      A                      A
 Frequencies --   1131.0247              1169.3782              1224.4390
 Red. masses --      1.9550                 2.0254                 2.3404
 Frc consts  --      1.4735                 1.6318                 2.0673
 IR Inten    --    298.5074                57.4926                39.4904

                     13                     14                     15
                      A                      A                      A
 Frequencies --   1328.0572              1368.7213              1424.0724
 Red. masses --      1.4585                 1.3017                 1.3060
 Frc consts  --      1.5156                 1.4368                 1.5605
 IR Inten    --      9.7486                 6.2613                 5.4122

                     16                     17                     18
                      A                      A                      A
 Frequencies --   1682.4821              1712.2145              2948.2850
 Red. masses --      6.2850                 6.8012                 1.0838
 Frc consts  --     10.4823                11.7476                 5.5506
 IR Inten    --     73.8164               486.3996                87.9082

                     19                     20                     21
                      A                      A                      A
 Frequencies --   3216.7614              3236.0199              3774.6165
 Red. masses --      1.0938                 1.0923                 1.0658
 Frc consts  --      6.6686                 6.7394                 8.9465
 IR Inten    --      4.1160                 3.9538                79.3115

 - Thermochemistry -
 -------------------
 Temperature   298.150 Kelvin.  Pressure   1.00000 Atm.
 Atom     1 has atomic number  6 and mass  12.00000

 Molecular mass:    72.02113 amu.
 Principal axes and moments of inertia in atomic units:
                           1         2         3
     Eigenvalues --    46.81903 817.00421 863.82324
           X            0.99992  -0.01237  -0.00000
           Y            0.01237   0.99992   0.00001
           Z            0.00000  -0.00001   1.00000
 This molecule is an asymmetric top.
 Rotational symmetry number  1.
 Rotational temperatures (Kelvin)      1.84997     0.10601     0.10027
 Rotational constants (GHZ):          38.54717     2.20897     2.08925
 Zero-point vibrational energy     175228.5 (Joules/Mol)
                                   41.88061 (Kcal/Mol)
 Warning -- explicit consideration of   6 degrees of freedom as
           vibrations may cause significant error
 Vibrational temperatures:    209.22   312.60   471.38   701.09   762.30
          (Kelvin)            809.48  1192.97  1399.36  1450.35  1627.29
                             1682.47  1761.69  1910.78  1969.28  2048.92
                             2420.72  2463.49  4241.92  4628.20  4655.91
                             5430.83

 Zero-point correction=                           0.066741 (Hartree/Particle)
 Thermal correction to Energy=                    0.071997
 Thermal correction to Enthalpy=                  0.072941
 Thermal correction to Gibbs Free Energy=         0.038676
 Sum of electronic and zero-point Energies=           -266.398714
 Sum of electronic and thermal Energies=              -266.393458
 Sum of electronic and thermal Enthalpies=            -266.392514
 Sum of electronic and thermal Free Energies=         -266.426779

                     E (Thermal)             CV                S
                      KCal/Mol        Cal/Mol-Kelvin    Cal/Mol-Kelvin
 Total                   45.179             17.353             72.117
 Electronic               0.000              0.000              0.000
 Translational            0.889              2.981             38.740
 Rotational               0.889              2.981             25.005
 Vibrational             43.401             11.392              8.372
 Vibration     1          0.617              1.908              2.731
 Vibration     2          0.646              1.815              1.982
 Vibration     3          0.711              1.620              1.272
 Vibration     4          0.843              1.278              0.691
 Vibration     5          0.885              1.184              0.588
 Vibration     6          0.918              1.112              0.519

 ## DEPERTURBED TRANSITIONS MOMENTS ##

 Electric dipole : Fundamental Bands
 ------------------------------------------------------------------------

 ## AFTER VARIATIONAL CORRECTION

 Electric dipole : Fundamental Bands
 ------------------------------------------------------------------------

                           ! Non-Optimized Parameters !
 Normal termination of Gaussian 16 at Sat Mar 22 19:49:39 2025.
