 Gaussian 16, Revision A.03,
 Gaussian 16:  ES64L-G16RevA.03 25-Dec-2016

 -----------------------------------
 # mp2/aug-cc-pVDZ opt freq=(vibrot)
 -----------------------------------

 ----
 blah
 ----
 Symbolic Z-matrix:
 Charge =  0 Multiplicity = 1

 SCF Done:  E(RHF) =  -265.663623196     A.U. after   14 cycles
 E2 =    -0.7972162240D+00 EUMP2 =    -0.26646083941964D+03
 SCF Done:  E(RHF) =  -265.662411976     A.U. after   12 cycles
 E2 =    -0.7998358240D+00 EUMP2 =    -0.26646224779957D+03
 SCF Done:  E(RHF) =  -265.662583117     A.U. after   11 cycles
 E2 =    -0.7997657586D+00 EUMP2 =    -0.26646234887546D+03
 SCF Done:  E(RHF) =  -265.662707399     A.U. after   10 cycles
 E2 =    -0.7996495159D+00 EUMP2 =    -0.26646235691491D+03
 Optimization completed.
    -- Stationary point found.
 Normal termination of Gaussian 16 at Mon Mar 20 11:36:54 2023.

 ----------------------------------------------------------------------
 #N Geom=AllCheck Guess=TCheck SCRF=Check GenChk RMP2(FC)/Aug-CC-pVDZ F
 req
 ----------------------------------------------------------------------

 Structure from the checkpoint file:  "/gscratch/scrubbed/gds001/Gau-1267.chk"
 ----
 blah
 ----
 Charge =  0 Multiplicity = 1

                         Standard orientation:
 ---------------------------------------------------------------------
 Center     Atomic      Atomic             Coordinates (Angstroms)
 Number     Number       Type             X           Y           Z
 ---------------------------------------------------------------------
      1          6           0       -0.004148    0.707523   -0.000011
      2          6           0        0.882526   -0.322818   -0.000024
      3          6           0       -1.453702    0.433949   -0.000065
      4          1           0        0.331497    1.749999    0.000043
      5          8           0        2.236210   -0.229025    0.000017
      6          1           0        0.542443   -1.361062   -0.000075
      7          1           0        2.490092    0.707771    0.000058
      8          8           0       -1.962206   -0.689479    0.000037
      9          1           0       -2.104121    1.339404    0.000137
 ---------------------------------------------------------------------

 SCF Done:  E(RHF) =  -265.662707399     A.U. after    1 cycles
 E2 =    -0.7996495145D+00 EUMP2 =    -0.26646235691350D+03
 E2 =    -0.7996495145D+00 EUMP2 =    -0.26646235691350D+03

 The electronic state is 1-A.
 Alpha  occ. eigenvalues --  -20.63981 -20.55629 -11.35373 -11.34743 -11.25040
 Alpha  occ. eigenvalues --   -1.44337  -1.37523  -1.06861  -0.90320  -0.81362
 Alpha  occ. eigenvalues --   -0.71512  -0.68845  -0.63780  -0.61030  -0.60123
 Alpha  occ. eigenvalues --   -0.56099  -0.52890  -0.42547  -0.36826
 Alpha virt. eigenvalues --    0.02468   0.04168   0.05230   0.06653   0.06810
 Alpha virt. eigenvalues --    0.10370   0.11155   0.12472   0.13068   0.13167
 Alpha virt. eigenvalues --    0.13989   0.14598   0.14882   0.16566   0.17802

 Mulliken charges:
               1
     1  C    0.586241
     2  C    0.797211
     3  C    0.608344
     4  H   -0.491433
     5  O   -0.660959
     6  H   -0.194875
     7  H    0.167118
     8  O   -0.738127
     9  H   -0.073520
 Sum of Mulliken charges =  -0.00000

 Dipole moment (field-independent basis, Debye):
    X=              2.5797    Y=              3.2826    Z=             -0.0000  Tot=              4.1750
 Quadrupole moment (field-independent basis, Debye-Ang):
   XX=            -33.6295   YY=            -26.6024   ZZ=            -30.9318
   XY=             -1.2754   XZ=              0.0004   YZ=              0.0004

  Exact polarizability:  67.961  -2.741  48.246  -0.000   0.000  31.277
 Approx polarizability:  46.357  -1.781  43.448  -0.000  -0.000  30.403

                      1                      2                      3
                      A                      A                      A
 Frequencies --    164.6841               203.8862               250.3934
 Red. masses --      1.7968                 6.4676                 2.9707
 Frc consts  --      0.0287                 0.1584                 0.1097
 IR Inten    --      0.0073                 2.6434                 7.2988

                      4                      5                      6
                      A                      A                      A
 Frequencies --    442.0535               537.4874               735.2549
 Red. masses --      4.2447                 1.2523                 5.7399
 Frc consts  --      0.4887                 0.2132                 1.8282
 IR Inten    --      7.9690                75.5112                71.9491

                      7                      8                      9
                      A                      A                      A
 Frequencies --    801.8957               997.7196              1002.3050
 Red. masses --      1.5634                 1.3827                 2.3889
 Frc consts  --      0.5923                 0.8109                 1.4140
 IR Inten    --     25.8314                24.3354               113.1432

                     10                     11                     12
                      A                      A                      A
 Frequencies --   1007.5410              1142.2873              1282.3635
 Red. masses --      1.4365                 1.5267                 2.7645
 Frc consts  --      0.8592                 1.1737                 2.6785
 IR Inten    --     25.5517               140.8571                11.5042

                     13                     14                     15
                      A                      A                      A
 Frequencies --   1312.6886              1389.9911              1420.3952
 Red. masses --      1.2955                 1.3138                 1.3066
 Frc consts  --      1.3153                 1.4955                 1.5531
 IR Inten    --     34.6453                 0.1700                 3.4047

                     16                     17                     18
                      A                      A                      A
 Frequencies --   1669.3134              1720.4462              2979.3379
 Red. masses --      7.3155                 6.0641                 1.0846
 Frc consts  --     12.0108                10.5755                 5.6724
 IR Inten    --    537.4580                88.5998               126.6161

                     19                     20                     21
                      A                      A                      A
 Frequencies --   3209.8744              3255.6648              3773.1515
 Red. masses --      1.0932                 1.0931                 1.0657
 Frc consts  --      6.6362                 6.8261                 8.9389
 IR Inten    --     10.0516                 0.5762                76.9334

 - Thermochemistry -
 -------------------
 Temperature   298.150 Kelvin.  Pressure   1.00000 Atm.
 Atom     1 has atomic number  6 and mass  12.00000

 Molecular mass:    72.02113 amu.
 Principal axes and moments of inertia in atomic units:
                           1         2         3
     Eigenvalues --    89.76688 669.14434 758.91122
           X            0.99997  -0.00714  -0.00000
           Y            0.00714   0.99997   0.00002
           Z            0.00000  -0.00002   1.00000
 This molecule is an asymmetric top.
 Rotational symmetry number  1.
 Rotational temperatures (Kelvin)      0.96488     0.12944     0.11413
 Rotational constants (GHZ):          20.10476     2.69709     2.37807
 Zero-point vibrational energy     175245.4 (Joules/Mol)
                                   41.88464 (Kcal/Mol)
 Warning -- explicit consideration of   5 degrees of freedom as
           vibrations may cause significant error
 Vibrational temperatures:    236.94   293.35   360.26   636.02   773.32
          (Kelvin)           1057.87  1153.75  1435.50  1442.09  1449.63
                             1643.50  1845.03  1888.67  1999.89  2043.63
                             2401.77  2475.34  4286.60  4618.29  4684.18
                             5428.72

 Zero-point correction=                           0.066747 (Hartree/Particle)
 Thermal correction to Energy=                    0.072057
 Thermal correction to Enthalpy=                  0.073001
 Thermal correction to Gibbs Free Energy=         0.038468
 Sum of electronic and zero-point Energies=           -266.395609
 Sum of electronic and thermal Energies=              -266.390300
 Sum of electronic and thermal Enthalpies=            -266.389356
 Sum of electronic and thermal Free Energies=         -266.423889

                     E (Thermal)             CV                S
                      KCal/Mol        Cal/Mol-Kelvin    Cal/Mol-Kelvin
 Total                   45.216             17.352             72.680
 Electronic               0.000              0.000              0.000
 Translational            0.889              2.981             38.740
 Rotational               0.889              2.981             25.325
 Vibrational             43.439             11.390              8.616
 Vibration     1          0.623              1.886              2.495
 Vibration     2          0.640              1.834              2.098
 Vibration     3          0.663              1.762              1.728
 Vibration     4          0.802              1.378              0.820
 Vibration     5          0.893              1.167              0.571

 Optimization completed.
    -- Stationary point found.
 Normal termination of Gaussian 16 at Mon Mar 20 11:38:41 2023.
