 Gaussian 16, Revision C.01,
 Gaussian 16:  EM64L-G16RevC.01  3-Jul-2019

 ----------------------------------------------
 # MP2/aug-cc-pVTZ opt freq=(vibrot,anharmonic)
 ----------------------------------------------

 ----
 blah
 ----
 Symbolic Z-matrix:
 Charge =  0 Multiplicity = 1

 SCF Done:  E(RHF) =  -152.954948114     A.U. after   12 cycles
 E2 =    -0.5806590601D+00 EUMP2 =    -0.15353560717365D+03
 SCF Done:  E(RHF) =  -152.955973948     A.U. after   10 cycles
 E2 =    -0.5800619774D+00 EUMP2 =    -0.15353603592528D+03
 SCF Done:  E(RHF) =  -152.955993582     A.U. after    9 cycles
 E2 =    -0.5800613167D+00 EUMP2 =    -0.15353605489883D+03
 SCF Done:  E(RHF) =  -152.955979289     A.U. after    8 cycles
 E2 =    -0.5800782960D+00 EUMP2 =    -0.15353605758454D+03
 Optimization completed.
    -- Stationary point found.
 Normal termination of Gaussian 16 at Fri Mar 21 15:55:40 2025.

 ----------------------------------------------------------------------
 #N Geom=AllCheck Guess=TCheck SCRF=Check GenChk RMP2(FC)/Aug-CC-pVTZ F
 req
 ----------------------------------------------------------------------

 Structure from the checkpoint file:  "/scr/Gau-91277.chk"
 ----
 blah
 ----
 Charge =  0 Multiplicity = 1

                         Standard orientation:
 ---------------------------------------------------------------------
 Center     Atomic      Atomic             Coordinates (Angstroms)
 Number     Number       Type             X           Y           Z
 ---------------------------------------------------------------------
      1          6           0        0.036088    0.416549    0.000001
      2          6           0        1.225056   -0.182630    0.000001
      3          1           0       -0.064055    1.495262   -0.000004
      4          8           0       -1.131811   -0.297074   -0.000003
      5          1           0        2.116652    0.422271   -0.000005
      6          1           0        1.308207   -1.258823    0.000003
      7          1           0       -1.873180    0.314370    0.000014
 ---------------------------------------------------------------------

 SCF Done:  E(RHF) =  -152.955979289     A.U. after    1 cycles
 E2 =    -0.5800782984D+00 EUMP2 =    -0.15353605758698D+03
 E2 =    -0.5800782984D+00 EUMP2 =    -0.15353605758698D+03
 SCF Done:  E(RHF) =  -152.955976547     A.U. after    8 cycles
 E2 =    -0.5800805506D+00 EUMP2 =    -0.15353605709792D+03
 E2 =    -0.5800805506D+00 EUMP2 =    -0.15353605709792D+03
 SCF Done:  E(RHF) =  -152.955976544     A.U. after    8 cycles
 E2 =    -0.5800805503D+00 EUMP2 =    -0.15353605709442D+03
 E2 =    -0.5800805503D+00 EUMP2 =    -0.15353605709442D+03
 SCF Done:  E(RHF) =  -152.955978419     A.U. after    7 cycles
 E2 =    -0.5800775878D+00 EUMP2 =    -0.15353605600673D+03
 E2 =    -0.5800775878D+00 EUMP2 =    -0.15353605600673D+03
 SCF Done:  E(RHF) =  -152.955975986     A.U. after    7 cycles
 E2 =    -0.5800801403D+00 EUMP2 =    -0.15353605612668D+03
 E2 =    -0.5800801403D+00 EUMP2 =    -0.15353605612668D+03
 SCF Done:  E(RHF) =  -152.955974859     A.U. after    7 cycles
 E2 =    -0.5800792542D+00 EUMP2 =    -0.15353605411366D+03
 E2 =    -0.5800792542D+00 EUMP2 =    -0.15353605411366D+03
 E2 =    -0.5800792513D+00 EUMP2 =    -0.15353605412230D+03
 E2 =    -0.5800792513D+00 EUMP2 =    -0.15353605412230D+03
 E2 =    -0.5800804462D+00 EUMP2 =    -0.15353605279027D+03
 E2 =    -0.5800804462D+00 EUMP2 =    -0.15353605279027D+03
 SCF Done:  E(RHF) =  -152.955786569     A.U. after    8 cycles
 E2 =    -0.5802512102D+00 EUMP2 =    -0.15353603777919D+03
 E2 =    -0.5802512102D+00 EUMP2 =    -0.15353603777919D+03
 SCF Done:  E(RHF) =  -152.956128538     A.U. after    8 cycles
 E2 =    -0.5799088745D+00 EUMP2 =    -0.15353603741297D+03
 E2 =    -0.5799088745D+00 EUMP2 =    -0.15353603741297D+03
 SCF Done:  E(RHF) =  -152.955900821     A.U. after    9 cycles
 E2 =    -0.5800885055D+00 EUMP2 =    -0.15353598932613D+03
 E2 =    -0.5800885055D+00 EUMP2 =    -0.15353598932613D+03
 SCF Done:  E(RHF) =  -152.955916521     A.U. after    9 cycles
 E2 =    -0.5800712977D+00 EUMP2 =    -0.15353598781901D+03
 E2 =    -0.5800712977D+00 EUMP2 =    -0.15353598781901D+03
 SCF Done:  E(RHF) =  -152.956039667     A.U. after    8 cycles
 E2 =    -0.5799466817D+00 EUMP2 =    -0.15353598634836D+03
 E2 =    -0.5799466817D+00 EUMP2 =    -0.15353598634836D+03
 SCF Done:  E(RHF) =  -152.955776314     A.U. after    8 cycles
 E2 =    -0.5802130199D+00 EUMP2 =    -0.15353598933361D+03
 E2 =    -0.5802130199D+00 EUMP2 =    -0.15353598933361D+03
 SCF Done:  E(RHF) =  -152.955887836     A.U. after    8 cycles
 E2 =    -0.5800956306D+00 EUMP2 =    -0.15353598346609D+03
 E2 =    -0.5800956306D+00 EUMP2 =    -0.15353598346609D+03
 SCF Done:  E(RHF) =  -152.955920260     A.U. after    8 cycles
 E2 =    -0.5800629976D+00 EUMP2 =    -0.15353598325799D+03
 E2 =    -0.5800629976D+00 EUMP2 =    -0.15353598325799D+03
 SCF Done:  E(RHF) =  -152.955419361     A.U. after    8 cycles
 E2 =    -0.5805402550D+00 EUMP2 =    -0.15353595961573D+03
 E2 =    -0.5805402550D+00 EUMP2 =    -0.15353595961573D+03
 SCF Done:  E(RHF) =  -152.956335412     A.U. after    8 cycles
 E2 =    -0.5796179016D+00 EUMP2 =    -0.15353595331371D+03
 E2 =    -0.5796179016D+00 EUMP2 =    -0.15353595331371D+03

 Alpha  occ. eigenvalues --  -20.59039 -11.29698 -11.21137  -1.40383  -1.02516
 Alpha  occ. eigenvalues --   -0.79782  -0.74364  -0.62186  -0.57741  -0.57447
 Alpha  occ. eigenvalues --   -0.52274  -0.34667
 Alpha virt. eigenvalues --    0.02559   0.03983   0.04411   0.05992   0.09245
 Alpha virt. eigenvalues --    0.09946   0.10354   0.10750   0.13248   0.14421
 Alpha virt. eigenvalues --    0.16371   0.16900   0.17216   0.18546   0.18839

 Mulliken charges:
               1
     1  C   -0.325468
     2  C   -0.919586
     3  H    0.620451
     4  O   -0.412159
     5  H    0.332401
     6  H    0.513237
     7  H    0.191124
 Sum of Mulliken charges =  -0.00000

 Dipole moment (field-independent basis, Debye):
    X=             -0.7724    Y=              1.6198    Z=              0.0000  Tot=              1.7945
 Quadrupole moment (field-independent basis, Debye-Ang):
   XX=            -15.4133   YY=            -17.6220   ZZ=            -21.3210
   XY=             -2.5342   XZ=             -0.0001   YZ=             -0.0000

  Exact polarizability:      42.259      -3.100      30.206      -0.000       0.000      25.399
 Approx polarizability:      32.815      -3.403      25.980      -0.000       0.000      22.890

                      1                      2                      3
                      A                      A                      A
 Frequencies --    268.7668               474.3767               716.1230
 Red. masses --      1.1023                 2.2202                 1.4515
 Frc consts  --      0.0469                 0.2944                 0.4386
 IR Inten    --     95.6711                 3.6620                20.9569

                      4                      5                      6
                      A                      A                      A
 Frequencies --    842.3601               956.5510               968.4251
 Red. masses --      1.4080                 1.8757                 1.1060
 Frc consts  --      0.5886                 1.0112                 0.6111
 IR Inten    --     49.7724                50.7491                28.2032

                      7                      8                      9
                      A                      A                      A
 Frequencies --   1143.3680              1285.3582              1348.3393
 Red. masses --      1.8373                 1.6007                 1.1813
 Frc consts  --      1.4151                 1.5581                 1.2654
 IR Inten    --     15.9704               197.7690                 3.5607

                     10                     11                     12
                      A                      A                      A
 Frequencies --   1440.1190              1720.0277              3195.6703
 Red. masses --      1.1829                 4.1356                 1.0723
 Frc consts  --      1.4454                 7.2087                 6.4521
 IR Inten    --      0.2201               106.0403                 8.1933

                     13                     14                     15
                      A                      A                      A
 Frequencies --   3212.6399              3314.1032              3867.7843
 Red. masses --      1.0809                 1.1184                 1.0670
 Frc consts  --      6.5726                 7.2376                 9.4044
 IR Inten    --      3.0375                 1.8185               101.4217

 - Thermochemistry -
 -------------------
 Temperature   298.150 Kelvin.  Pressure   1.00000 Atm.
 Atom     1 has atomic number  6 and mass  12.00000

 Molecular mass:    44.02621 amu.
 Principal axes and moments of inertia in atomic units:
                           1         2         3
     Eigenvalues --    28.40576 172.45991 200.86567
           X            0.99940  -0.03454  -0.00000
           Y            0.03454   0.99940  -0.00000
           Z            0.00000   0.00000   1.00000
 This molecule is an asymmetric top.
 Rotational symmetry number  1.
 Rotational temperatures (Kelvin)      3.04917     0.50223     0.43120
 Rotational constants (GHZ):          63.53433    10.46470     8.98482
 Zero-point vibrational energy     148061.9 (Joules/Mol)
                                   35.38764 (Kcal/Mol)
 Warning -- explicit consideration of   2 degrees of freedom as
           vibrations may cause significant error
 Vibrational temperatures:    386.70   682.52  1030.34  1211.97  1376.26
          (Kelvin)           1393.35  1645.05  1849.34  1939.96  2072.01
                             2474.74  4597.86  4622.27  4768.26  5564.88

 Zero-point correction=                           0.056394 (Hartree/Particle)
 Thermal correction to Energy=                    0.060240
 Thermal correction to Enthalpy=                  0.061184
 Thermal correction to Gibbs Free Energy=         0.031764
 Sum of electronic and zero-point Energies=           -153.479664
 Sum of electronic and thermal Energies=              -153.475818
 Sum of electronic and thermal Enthalpies=            -153.474874
 Sum of electronic and thermal Free Energies=         -153.504294

                     E (Thermal)             CV                S
                      KCal/Mol        Cal/Mol-Kelvin    Cal/Mol-Kelvin
 Total                   37.801             11.874             61.920
 Electronic               0.000              0.000              0.000
 Translational            0.889              2.981             37.273
 Rotational               0.889              2.981             21.514
 Vibrational             36.023              5.913              3.133
 Vibration     1          0.673              1.731              1.604
 Vibration     2          0.831              1.307              0.725

 ## DEPERTURBED TRANSITIONS MOMENTS ##

 Electric dipole : Fundamental Bands
 ------------------------------------------------------------------------

 ## AFTER VARIATIONAL CORRECTION

 Electric dipole : Fundamental Bands
 ------------------------------------------------------------------------

 Optimization completed.
    -- Stationary point found.
 Normal termination of Gaussian 16 at Fri Mar 21 19:12:46 2025.
