 Gaussian 16, Revision A.03,
 Gaussian 16:  ES64L-G16RevA.03 25-Dec-2016

 ----------------------------------------------
 # MP2/aug-cc-pVTZ opt freq=(vibrot,anharmonic)
 ----------------------------------------------

 ----
 bleh
 ----
 Symbolic Z-matrix:
 Charge =  0 Multiplicity = 1

 SCF Done:  E(RHF) =  -139.070959438     A.U. after   10 cycles
 E2 =    -0.4463510715D+00 EUMP2 =    -0.13951731050956D+03
 SCF Done:  E(RHF) =  -139.095675709     A.U. after    9 cycles
 E2 =    -0.4448579564D+00 EUMP2 =    -0.13954053366492D+03
 SCF Done:  E(RHF) =  -139.097366966     A.U. after    9 cycles
 E2 =    -0.4440822706D+00 EUMP2 =    -0.13954144923705D+03
 SCF Done:  E(RHF) =  -139.097214050     A.U. after    8 cycles
 E2 =    -0.4443141391D+00 EUMP2 =    -0.13954152818888D+03
 SCF Done:  E(RHF) =  -139.097289578     A.U. after    7 cycles
 E2 =    -0.4442426399D+00 EUMP2 =    -0.13954153221753D+03
 Optimization completed.
    -- Stationary point found.
 Normal termination of Gaussian 16 at Mon Dec 20 12:37:01 2021.

 ----------------------------------------------------------------------
 #N Geom=AllCheck Guess=TCheck SCRF=Check GenChk RMP2(FC)/Aug-CC-pVTZ F
 req
 ----------------------------------------------------------------------

 Structure from the checkpoint file:  "/gscratch/scrubbed/gds001/Gau-24072.chk"
 ----
 bleh
 ----
 Charge =  0 Multiplicity = 1

                         Standard orientation:
 ---------------------------------------------------------------------
 Center     Atomic      Atomic             Coordinates (Angstroms)
 Number     Number       Type             X           Y           Z
 ---------------------------------------------------------------------
      1          9           0        0.000000    0.000000    0.752355
      2          6           0        0.000000    0.000000   -0.636375
      3          1           0        0.000000    1.030199   -0.984314
      4          1           0        0.892178   -0.515099   -0.984314
      5          1           0       -0.892178   -0.515099   -0.984314
 ---------------------------------------------------------------------

 SCF Done:  E(RHF) =  -139.097289578     A.U. after    1 cycles
 E2 =    -0.4442426398D+00 EUMP2 =    -0.13954153221742D+03
 E2 =    -0.4442426398D+00 EUMP2 =    -0.13954153221742D+03
 SCF Done:  E(RHF) =  -139.097149906     A.U. after    7 cycles
 E2 =    -0.4443733376D+00 EUMP2 =    -0.13954152324338D+03
 E2 =    -0.4443733376D+00 EUMP2 =    -0.13954152324338D+03
 SCF Done:  E(RHF) =  -139.097413797     A.U. after    7 cycles
 E2 =    -0.4441118735D+00 EUMP2 =    -0.13954152567047D+03
 E2 =    -0.4441118735D+00 EUMP2 =    -0.13954152567047D+03
 SCF Done:  E(RHF) =  -139.097278191     A.U. after    7 cycles
 E2 =    -0.4442441114D+00 EUMP2 =    -0.13954152230193D+03
 E2 =    -0.4442441114D+00 EUMP2 =    -0.13954152230193D+03
 SCF Done:  E(RHF) =  -139.097278208     A.U. after    7 cycles
 E2 =    -0.4442441082D+00 EUMP2 =    -0.13954152231640D+03
 E2 =    -0.4442441082D+00 EUMP2 =    -0.13954152231640D+03
 E2 =    -0.4442441098D+00 EUMP2 =    -0.13954152230917D+03
 E2 =    -0.4442441098D+00 EUMP2 =    -0.13954152230917D+03
 E2 =    -0.4442441098D+00 EUMP2 =    -0.13954152230917D+03
 E2 =    -0.4442441098D+00 EUMP2 =    -0.13954152230917D+03
 E2 =    -0.4442548895D+00 EUMP2 =    -0.13954151895269D+03
 SCF Done:  E(RHF) =  -139.097271830     A.U. after    7 cycles
 E2 =    -0.4442446323D+00 EUMP2 =    -0.13954151646274D+03
 E2 =    -0.4442446323D+00 EUMP2 =    -0.13954151646274D+03
 SCF Done:  E(RHF) =  -139.097271782     A.U. after    7 cycles
 E2 =    -0.4442446369D+00 EUMP2 =    -0.13954151641928D+03
 E2 =    -0.4442446369D+00 EUMP2 =    -0.13954151641928D+03
 SCF Done:  E(RHF) =  -139.097271806     A.U. after    7 cycles
 E2 =    -0.4442446346D+00 EUMP2 =    -0.13954151644101D+03
 E2 =    -0.4442446346D+00 EUMP2 =    -0.13954151644101D+03
 SCF Done:  E(RHF) =  -139.097271806     A.U. after    7 cycles
 E2 =    -0.4442446346D+00 EUMP2 =    -0.13954151644101D+03
 E2 =    -0.4442446346D+00 EUMP2 =    -0.13954151644101D+03
 SCF Done:  E(RHF) =  -139.097058656     A.U. after    8 cycles
 E2 =    -0.4444020188D+00 EUMP2 =    -0.13954146067459D+03
 E2 =    -0.4444020188D+00 EUMP2 =    -0.13954146067459D+03
 SCF Done:  E(RHF) =  -139.097388328     A.U. after    8 cycles
 E2 =    -0.4440868592D+00 EUMP2 =    -0.13954147518756D+03
 E2 =    -0.4440868592D+00 EUMP2 =    -0.13954147518756D+03
 SCF Done:  E(RHF) =  -139.097220725     A.U. after    7 cycles
 E2 =    -0.4442434262D+00 EUMP2 =    -0.13954146415125D+03
 E2 =    -0.4442434262D+00 EUMP2 =    -0.13954146415125D+03
 SCF Done:  E(RHF) =  -139.097219566     A.U. after    7 cycles
 E2 =    -0.4442434374D+00 EUMP2 =    -0.13954146300363D+03
 E2 =    -0.4442434374D+00 EUMP2 =    -0.13954146300363D+03
 SCF Done:  E(RHF) =  -139.097220146     A.U. after    7 cycles
 E2 =    -0.4442434318D+00 EUMP2 =    -0.13954146357744D+03
 E2 =    -0.4442434318D+00 EUMP2 =    -0.13954146357744D+03
 SCF Done:  E(RHF) =  -139.097220146     A.U. after    7 cycles
 E2 =    -0.4442434318D+00 EUMP2 =    -0.13954146357744D+03
 E2 =    -0.4442434318D+00 EUMP2 =    -0.13954146357744D+03

 Alpha  occ. eigenvalues --  -26.27765 -11.30620  -1.58450  -0.95586  -0.69497
 Alpha  occ. eigenvalues --   -0.69377  -0.67212  -0.53340  -0.53125
 Alpha virt. eigenvalues --    0.02871   0.04648   0.04659   0.07443   0.12339
 Alpha virt. eigenvalues --    0.12355   0.13931   0.19359   0.20517   0.20531
 Alpha virt. eigenvalues --    0.22515   0.22567   0.23581   0.31749   0.32414

 Mulliken charges:
               1
     1  F   -0.356539
     2  C   -0.583666
     3  H    0.313431
     4  H    0.309686
     5  H    0.317088
 Sum of Mulliken charges =  -0.00000

 Dipole moment (field-independent basis, Debye):
    X=             -0.0072    Y=              0.0001    Z=             -1.8912  Tot=              1.8912
 Quadrupole moment (field-independent basis, Debye-Ang):
   XX=            -11.9541   YY=            -11.9541   ZZ=            -12.7836
   XY=             -0.0028   XZ=              0.0067   YZ=             -0.0001

  Exact polarizability:  16.226  -0.074  16.225  -0.057   0.000  17.895
 Approx polarizability:  12.908  -0.051  12.907  -0.034   0.000  13.628

                      1                      2                      3
                     A1                      E                      E
 Frequencies --   1071.7257              1210.8429              1210.8431
 Red. masses --      8.5158                 1.2472                 1.2472
 Frc consts  --      5.7629                 1.0773                 1.0773
 IR Inten    --    106.1090                 1.3928                 1.3928

                      4                      5                      6
                     A1                      E                      E
 Frequencies --   1505.7389              1528.0142              1528.0142
 Red. masses --      1.1335                 1.0522                 1.0522
 Frc consts  --      1.5142                 1.4475                 1.4475
 IR Inten    --      1.3325                 4.9136                 4.9136

                      7                      8                      9
                     A1                      E                      E
 Frequencies --   3084.3632              3186.9829              3186.9830
 Red. masses --      1.0269                 1.1080                 1.1080
 Frc consts  --      5.7556                 6.6305                 6.6305
 IR Inten    --     31.7665                21.8623                21.8623

 - Thermochemistry -
 -------------------
 Temperature   298.150 Kelvin.  Pressure   1.00000 Atm.
 Atom     1 has atomic number  9 and mass  18.99840

 Molecular mass:    34.02188 amu.
 Principal axes and moments of inertia in atomic units:
                           1         2         3
     Eigenvalues --    11.45899  70.52502  70.52502
           X            0.00000  -0.44721   0.89443
           Y            0.00000   0.89443   0.44721
           Z            1.00000  -0.00000  -0.00000
 This molecule is a prolate symmetric top.
 Rotational symmetry number  3.
 Rotational temperatures (Kelvin)      7.55860     1.22813     1.22813
 Rotational constants (GHZ):         157.49568    25.59008    25.59008
 Zero-point vibrational energy     104754.0 (Joules/Mol)
                                   25.03682 (Kcal/Mol)
 Vibrational temperatures:   1541.97  1742.13  1742.13  2166.42  2198.47
          (Kelvin)           2198.47  4437.71  4585.36  4585.36

 Zero-point correction=                           0.039899 (Hartree/Particle)
 Thermal correction to Energy=                    0.042805
 Thermal correction to Enthalpy=                  0.043749
 Thermal correction to Gibbs Free Energy=         0.018479
 Sum of electronic and zero-point Energies=           -139.501634
 Sum of electronic and thermal Energies=              -139.498727
 Sum of electronic and thermal Enthalpies=            -139.497783
 Sum of electronic and thermal Free Energies=         -139.523054

                     E (Thermal)             CV                S
                      KCal/Mol        Cal/Mol-Kelvin    Cal/Mol-Kelvin
 Total                   26.860              6.872             53.186
 Electronic               0.000              0.000              0.000
 Translational            0.889              2.981             36.504
 Rotational               0.889              2.981             16.500
 Vibrational             25.083              0.910              0.181

 Optimization completed.
    -- Stationary point found.
 Normal termination of Gaussian 16 at Mon Dec 20 13:11:18 2021.
