 Gaussian 16, Revision A.03,
 Gaussian 16:  ES64L-G16RevA.03 25-Dec-2016

 ----------------------------------------------
 # mp2/aug-cc-pVDZ opt freq=(vibrot,anharmonic)
 ----------------------------------------------

 ----
 bleh
 ----
 Symbolic Z-matrix:
 Charge =  0 Multiplicity = 1

 SCF Done:  E(RHF) =  -139.057416572     A.U. after   10 cycles
 E2 =    -0.3580623921D+00 EUMP2 =    -0.13941547896407D+03
 SCF Done:  E(RHF) =  -139.056738268     A.U. after    9 cycles
 E2 =    -0.3602579855D+00 EUMP2 =    -0.13941699625376D+03
 SCF Done:  E(RHF) =  -139.056643525     A.U. after    9 cycles
 E2 =    -0.3605200972D+00 EUMP2 =    -0.13941716362210D+03
 SCF Done:  E(RHF) =  -139.056587596     A.U. after    8 cycles
 E2 =    -0.3605971612D+00 EUMP2 =    -0.13941718475705D+03
 Optimization completed.
    -- Stationary point found.
 Normal termination of Gaussian 16 at Wed Nov 24 20:50:19 2021.

 ----------------------------------------------------------------------
 #N Geom=AllCheck Guess=TCheck SCRF=Check GenChk RMP2(FC)/Aug-CC-pVDZ F
 req
 ----------------------------------------------------------------------

 Structure from the checkpoint file:  "/gscratch/scrubbed/gds001/Gau-4217.chk"
 ----
 bleh
 ----
 Charge =  0 Multiplicity = 1

                         Standard orientation:
 ---------------------------------------------------------------------
 Center     Atomic      Atomic             Coordinates (Angstroms)
 Number     Number       Type             X           Y           Z
 ---------------------------------------------------------------------
      1          9           0       -0.762010    0.000005    0.000008
      2          6           0        0.646878   -0.000003   -0.000007
      3          1           0        0.992309   -0.537647    0.893352
      4          1           0        0.992316    1.042488    0.018920
      5          1           0        0.992195   -0.504861   -0.912297
 ---------------------------------------------------------------------

 SCF Done:  E(RHF) =  -139.056587596     A.U. after    1 cycles
 E2 =    -0.3605971616D+00 EUMP2 =    -0.13941718475742D+03
 E2 =    -0.3605971616D+00 EUMP2 =    -0.13941718475742D+03
 SCF Done:  E(RHF) =  -139.056427491     A.U. after    8 cycles
 E2 =    -0.3607499345D+00 EUMP2 =    -0.13941717742597D+03
 E2 =    -0.3607499345D+00 EUMP2 =    -0.13941717742597D+03
 SCF Done:  E(RHF) =  -139.056733542     A.U. after    8 cycles
 E2 =    -0.3604440550D+00 EUMP2 =    -0.13941717759662D+03
 E2 =    -0.3604440550D+00 EUMP2 =    -0.13941717759662D+03
 SCF Done:  E(RHF) =  -139.056576439     A.U. after    8 cycles
 E2 =    -0.3605987231D+00 EUMP2 =    -0.13941717516167D+03
 E2 =    -0.3605987231D+00 EUMP2 =    -0.13941717516167D+03
 SCF Done:  E(RHF) =  -139.056576582     A.U. after    8 cycles
 E2 =    -0.3605987544D+00 EUMP2 =    -0.13941717533594D+03
 E2 =    -0.3605987544D+00 EUMP2 =    -0.13941717533594D+03
 SCF Done:  E(RHF) =  -139.056576444     A.U. after    8 cycles
 E2 =    -0.3605987221D+00 EUMP2 =    -0.13941717516595D+03
 E2 =    -0.3605987221D+00 EUMP2 =    -0.13941717516595D+03
 E2 =    -0.3605987555D+00 EUMP2 =    -0.13941717533164D+03
 E2 =    -0.3605987555D+00 EUMP2 =    -0.13941717533164D+03
 E2 =    -0.3606174707D+00 EUMP2 =    -0.13941716998342D+03
 E2 =    -0.3606174707D+00 EUMP2 =    -0.13941716998342D+03
 SCF Done:  E(RHF) =  -139.056570402     A.U. after    8 cycles
 E2 =    -0.3605993538D+00 EUMP2 =    -0.13941716975558D+03
 E2 =    -0.3605993538D+00 EUMP2 =    -0.13941716975558D+03
 SCF Done:  E(RHF) =  -139.056570415     A.U. after    8 cycles
 E2 =    -0.3605993518D+00 EUMP2 =    -0.13941716976656D+03
 E2 =    -0.3605993518D+00 EUMP2 =    -0.13941716976656D+03
 SCF Done:  E(RHF) =  -139.056570541     A.U. after    8 cycles
 E2 =    -0.3605993339D+00 EUMP2 =    -0.13941716987479D+03
 E2 =    -0.3605993339D+00 EUMP2 =    -0.13941716987479D+03
 SCF Done:  E(RHF) =  -139.056570274     A.U. after    8 cycles
 E2 =    -0.3605993717D+00 EUMP2 =    -0.13941716964587D+03
 E2 =    -0.3605993717D+00 EUMP2 =    -0.13941716964587D+03
 SCF Done:  E(RHF) =  -139.056786505     A.U. after    8 cycles
 E2 =    -0.3603327550D+00 EUMP2 =    -0.13941711925964D+03
 E2 =    -0.3603327550D+00 EUMP2 =    -0.13941711925964D+03
 SCF Done:  E(RHF) =  -139.056258396     A.U. after    8 cycles
 E2 =    -0.3608627719D+00 EUMP2 =    -0.13941712116839D+03
 E2 =    -0.3608627719D+00 EUMP2 =    -0.13941712116839D+03
 SCF Done:  E(RHF) =  -139.056518505     A.U. after    8 cycles
 E2 =    -0.3605968958D+00 EUMP2 =    -0.13941711540047D+03
 E2 =    -0.3605968958D+00 EUMP2 =    -0.13941711540047D+03
 SCF Done:  E(RHF) =  -139.056518492     A.U. after    8 cycles
 E2 =    -0.3605968983D+00 EUMP2 =    -0.13941711538992D+03
 E2 =    -0.3605968983D+00 EUMP2 =    -0.13941711538992D+03
 SCF Done:  E(RHF) =  -139.056519090     A.U. after    8 cycles
 E2 =    -0.3605972340D+00 EUMP2 =    -0.13941711632414D+03
 E2 =    -0.3605972340D+00 EUMP2 =    -0.13941711632414D+03
 SCF Done:  E(RHF) =  -139.056517887     A.U. after    8 cycles
 E2 =    -0.3605965600D+00 EUMP2 =    -0.13941711444707D+03
 E2 =    -0.3605965600D+00 EUMP2 =    -0.13941711444707D+03

 Alpha  occ. eigenvalues --  -26.28799 -11.32156  -1.58149  -0.95442  -0.68909
 Alpha  occ. eigenvalues --   -0.68790  -0.66532  -0.53375  -0.53164
 Alpha virt. eigenvalues --    0.03437   0.05781   0.05795   0.08715   0.14488
 Alpha virt. eigenvalues --    0.14508   0.16959   0.25010   0.27348   0.27436
 Alpha virt. eigenvalues --    0.28621   0.28896   0.28928   0.37661   0.41306

 Mulliken charges:
               1
     1  F   -0.473453
     2  C    0.821331
     3  H   -0.106393
     4  H   -0.106263
     5  H   -0.135222
 Sum of Mulliken charges =  -0.00000

 Dipole moment (field-independent basis, Debye):
    X=              1.9611    Y=             -0.0036    Z=             -0.0065  Tot=              1.9611
 Quadrupole moment (field-independent basis, Debye-Ang):
   XX=            -12.9216   YY=            -12.1054   ZZ=            -12.1081
   XY=             -0.0034   XZ=             -0.0060   YZ=             -0.0021

  Exact polarizability:  18.152   0.028  16.214   0.050  -0.063  16.133
 Approx polarizability:  13.882   0.017  12.945   0.030  -0.044  12.889

                      1                      2                      3
                      A                      A                      A
 Frequencies --   1035.5259              1186.2145              1186.2152
 Red. masses --      8.8347                 1.2426                 1.2426
 Frc consts  --      5.5817                 1.0302                 1.0302
 IR Inten    --    105.9635                 1.3461                 1.3461

                      4                      5                      6
                      A                      A                      A
 Frequencies --   1470.2994              1489.7357              1489.7723
 Red. masses --      1.1283                 1.0531                 1.0531
 Frc consts  --      1.4371                 1.3770                 1.3771
 IR Inten    --      1.2781                 4.2808                 4.2825

                      7                      8                      9
                      A                      A                      A
 Frequencies --   3090.4971              3203.7017              3203.9225
 Red. masses --      1.0267                 1.1085                 1.1085
 Frc consts  --      5.7776                 6.7034                 6.7044
 IR Inten    --     32.1249                23.7439                23.7374

 - Thermochemistry -
 -------------------
 Temperature   298.150 Kelvin.  Pressure   1.00000 Atm.
 Atom     1 has atomic number  9 and mass  18.99840

 Molecular mass:    34.02188 amu.
 Principal axes and moments of inertia in atomic units:
                           1         2         3
     Eigenvalues --    11.73799  72.37809  72.37811
           X            1.00000   0.00000   0.00000
           Y           -0.00000   1.00000  -0.00003
           Z           -0.00000   0.00003   1.00000
 This molecule is an asymmetric top.
 Rotational symmetry number  1.
 Rotational temperatures (Kelvin)      7.37894     1.19669     1.19669
 Rotational constants (GHZ):         153.75211    24.93491    24.93490
 Zero-point vibrational energy     103811.2 (Joules/Mol)
                                   24.81148 (Kcal/Mol)
 Vibrational temperatures:   1489.89  1706.70  1706.70  2115.43  2143.40
          (Kelvin)           2143.45  4446.54  4609.41  4609.73

 Zero-point correction=                           0.039540 (Hartree/Particle)
 Thermal correction to Energy=                    0.042456
 Thermal correction to Enthalpy=                  0.043400
 Thermal correction to Gibbs Free Energy=         0.017044
 Sum of electronic and zero-point Energies=           -139.377645
 Sum of electronic and thermal Energies=              -139.374729
 Sum of electronic and thermal Enthalpies=            -139.373785
 Sum of electronic and thermal Free Energies=         -139.400141

                     E (Thermal)             CV                S
                      KCal/Mol        Cal/Mol-Kelvin    Cal/Mol-Kelvin
 Total                   26.641              6.968             55.470
 Electronic               0.000              0.000              0.000
 Translational            0.889              2.981             36.504
 Rotational               0.889              2.981             18.759
 Vibrational             24.864              1.007              0.207

 ## DEPERTURBED TRANSITIONS MOMENTS ##

 Electric dipole : Fundamental Bands
 ------------------------------------------------------------------------

 ## AFTER VARIATIONAL CORRECTION

 Electric dipole : Fundamental Bands
 ------------------------------------------------------------------------

 Optimization completed.
    -- Stationary point found.
 Normal termination of Gaussian 16 at Wed Nov 24 20:56:09 2021.
