 Gaussian 16, Revision C.01,
 Gaussian 16:  EM64L-G16RevC.01  3-Jul-2019

 ----------------------------------------------
 # MP2/aug-cc-pVDZ opt freq=(vibrot,anharmonic)
 ----------------------------------------------

 ----
 blah
 ----
 Symbolic Z-matrix:
 Charge =  0 Multiplicity = 1

 SCF Done:  E(RHF) =  -174.762196758     A.U. after   13 cycles
 E2 =    -0.4156576245D+00 EUMP2 =    -0.17517785438203D+03
 SCF Done:  E(RHF) =  -174.761602238     A.U. after   11 cycles
 E2 =    -0.4184612677D+00 EUMP2 =    -0.17518006350596D+03
 SCF Done:  E(RHF) =  -174.760165206     A.U. after   11 cycles
 E2 =    -0.4202621238D+00 EUMP2 =    -0.17518042732968D+03
 SCF Done:  E(RHF) =  -174.759971389     A.U. after   10 cycles
 E2 =    -0.4204585981D+00 EUMP2 =    -0.17518042998748D+03
 Optimization completed.
    -- Stationary point found.
 Normal termination of Gaussian 16 at Fri Mar  7 12:01:38 2025.

 ----------------------------------------------------------------------
 #N Geom=AllCheck Guess=TCheck SCRF=Check GenChk RMP2(FC)/Aug-CC-pVDZ F
 req
 ----------------------------------------------------------------------

 Structure from the checkpoint file:  "/scr/Gau-60900.chk"
 ----
 blah
 ----
 Charge =  0 Multiplicity = 1

                         Standard orientation:
 ---------------------------------------------------------------------
 Center     Atomic      Atomic             Coordinates (Angstroms)
 Number     Number       Type             X           Y           Z
 ---------------------------------------------------------------------
      1          8           0        0.053708    0.716364   -0.000000
      2          1           0       -0.913031    0.842570   -0.000000
      3          9           0        0.053708   -0.730387    0.000000
 ---------------------------------------------------------------------

 SCF Done:  E(RHF) =  -174.759971389     A.U. after    1 cycles
 E2 =    -0.4204585982D+00 EUMP2 =    -0.17518042998760D+03
 E2 =    -0.4204585982D+00 EUMP2 =    -0.17518042998760D+03
 SCF Done:  E(RHF) =  -174.760291805     A.U. after   10 cycles
 E2 =    -0.4201318254D+00 EUMP2 =    -0.17518042363001D+03
 E2 =    -0.4201318254D+00 EUMP2 =    -0.17518042363001D+03
 SCF Done:  E(RHF) =  -174.759639600     A.U. after   10 cycles
 E2 =    -0.4207849179D+00 EUMP2 =    -0.17518042451756D+03
 E2 =    -0.4207849179D+00 EUMP2 =    -0.17518042451756D+03
 SCF Done:  E(RHF) =  -174.759938050     A.U. after   10 cycles
 E2 =    -0.4204794223D+00 EUMP2 =    -0.17518041747232D+03
 E2 =    -0.4204794223D+00 EUMP2 =    -0.17518041747232D+03
 SCF Done:  E(RHF) =  -174.759970677     A.U. after   10 cycles
 E2 =    -0.4204457526D+00 EUMP2 =    -0.17518041642949D+03
 E2 =    -0.4204457526D+00 EUMP2 =    -0.17518041642949D+03
 SCF Done:  E(RHF) =  -174.759384997     A.U. after   11 cycles
 E2 =    -0.4209524397D+00 EUMP2 =    -0.17518033743685D+03
 E2 =    -0.4209524397D+00 EUMP2 =    -0.17518033743685D+03
 SCF Done:  E(RHF) =  -174.760365616     A.U. after   11 cycles
 E2 =    -0.4199674640D+00 EUMP2 =    -0.17518033308035D+03
 E2 =    -0.4199674640D+00 EUMP2 =    -0.17518033308035D+03

 Alpha  occ. eigenvalues --  -26.36183 -20.71037  -1.64708  -1.32858  -0.77821
 Alpha  occ. eigenvalues --   -0.72121  -0.68479  -0.61364  -0.55076
 Alpha virt. eigenvalues --    0.03407   0.10268   0.16841   0.19345   0.21220
 Alpha virt. eigenvalues --    0.23451   0.26271   0.29048   0.29637   0.34113
 Alpha virt. eigenvalues --    0.38377   0.46419   0.52496   0.62132   0.84467

 Mulliken charges:
               1
     1  O    0.014948
     2  H    0.223801
     3  F   -0.238749
 Sum of Mulliken charges =   0.00000

 Dipole moment (field-independent basis, Debye):
    X=             -1.6980    Y=              0.8345    Z=              0.0000  Tot=              1.8920
 Quadrupole moment (field-independent basis, Debye-Ang):
   XX=             -9.3600   YY=            -10.2347   ZZ=            -11.6932
   XY=             -1.6376   XZ=             -0.0000   YZ=              0.0000

  Exact polarizability:       9.698      -0.833      14.445      -0.000      -0.000       8.351
 Approx polarizability:       7.810      -0.470      13.182      -0.000      -0.000       6.307

                      1                      2                      3
                     A'                     A'                     A'
 Frequencies --    935.5046              1388.9409              3743.5056
 Red. masses --     16.9703                 1.0909                 1.0684
 Frc consts  --      8.7505                 1.2400                 8.8218
 IR Inten    --      1.3217                65.7859                40.0804

 - Thermochemistry -
 -------------------
 Temperature   298.150 Kelvin.  Pressure   1.00000 Atm.
 Atom     1 has atomic number  8 and mass  15.99491

 Molecular mass:    36.00114 amu.
 Principal axes and moments of inertia in atomic units:
                           1         2         3
     Eigenvalues --     3.12248  67.96267  71.08514
           X           -0.04760   0.99887   0.00000
           Y            0.99887   0.04760   0.00000
           Z           -0.00000  -0.00000   1.00000
 This molecule is an asymmetric top.
 Rotational symmetry number  1.
 Rotational temperatures (Kelvin)     27.73887     1.27443     1.21845
 Rotational constants (GHZ):         577.98413    26.55489    25.38844
 Zero-point vibrational energy      36294.4 (Joules/Mol)
                                    8.67457 (Kcal/Mol)
 Vibrational temperatures:   1345.98  1998.38  5386.07
          (Kelvin)

 Zero-point correction=                           0.013824 (Hartree/Particle)
 Thermal correction to Energy=                    0.016711
 Thermal correction to Enthalpy=                  0.017656
 Thermal correction to Gibbs Free Energy=        -0.008085
 Sum of electronic and zero-point Energies=           -175.166606
 Sum of electronic and thermal Energies=              -175.163719
 Sum of electronic and thermal Enthalpies=            -175.162774
 Sum of electronic and thermal Free Energies=         -175.188515

                     E (Thermal)             CV                S
                      KCal/Mol        Cal/Mol-Kelvin    Cal/Mol-Kelvin
 Total                   10.487              6.525             54.176
 Electronic               0.000              0.000              0.000
 Translational            0.889              2.981             36.673
 Rotational               0.889              2.981             17.363
 Vibrational              8.709              0.563              0.140

 Optimization completed.
    -- Stationary point found.
 Normal termination of Gaussian 16 at Fri Mar  7 12:02:25 2025.
