 Gaussian 16, Revision A.03,
 Gaussian 16:  ES64L-G16RevA.03 25-Dec-2016

 ----------------------------------------------
 # MP2/aug-cc-pVTZ opt freq=(vibrot,anharmonic)
 ----------------------------------------------

 ----
 bleh
 ----
 Symbolic Z-matrix:
 Charge =  0 Multiplicity = 1

 SCF Done:  E(RHF) =  -174.794438383     A.U. after   13 cycles
 E2 =    -0.5263969494D+00 EUMP2 =    -0.17532083533266D+03
 SCF Done:  E(RHF) =  -174.806246432     A.U. after   11 cycles
 E2 =    -0.5200256065D+00 EUMP2 =    -0.17532627203876D+03
 SCF Done:  E(RHF) =  -174.807440744     A.U. after   10 cycles
 E2 =    -0.5192594663D+00 EUMP2 =    -0.17532670021083D+03
 SCF Done:  E(RHF) =  -174.807722045     A.U. after   10 cycles
 E2 =    -0.5189886278D+00 EUMP2 =    -0.17532671067324D+03
 Optimization completed.
    -- Stationary point found.
 Normal termination of Gaussian 16 at Mon Dec 20 12:23:28 2021.

 ----------------------------------------------------------------------
 #N Geom=AllCheck Guess=TCheck SCRF=Check GenChk RMP2(FC)/Aug-CC-pVTZ F
 req
 ----------------------------------------------------------------------

 Structure from the checkpoint file:  "/gscratch/scrubbed/gds001/Gau-15899.chk"
 ----
 bleh
 ----
 Charge =  0 Multiplicity = 1

                         Standard orientation:
 ---------------------------------------------------------------------
 Center     Atomic      Atomic             Coordinates (Angstroms)
 Number     Number       Type             X           Y           Z
 ---------------------------------------------------------------------
      1          8           0        0.053369    0.706759    0.000000
      2          9           0        0.053369   -0.721576   -0.000000
      3          1           0       -0.907268    0.840107    0.000000
 ---------------------------------------------------------------------

 SCF Done:  E(RHF) =  -174.807722045     A.U. after    1 cycles
 E2 =    -0.5189886275D+00 EUMP2 =    -0.17532671067297D+03
 E2 =    -0.5189886275D+00 EUMP2 =    -0.17532671067297D+03
 SCF Done:  E(RHF) =  -174.808017117     A.U. after    8 cycles
 E2 =    -0.5186861289D+00 EUMP2 =    -0.17532670324593D+03
 E2 =    -0.5186861289D+00 EUMP2 =    -0.17532670324593D+03
 SCF Done:  E(RHF) =  -174.807413973     A.U. after    8 cycles
 E2 =    -0.5192911393D+00 EUMP2 =    -0.17532670511275D+03
 E2 =    -0.5192911393D+00 EUMP2 =    -0.17532670511275D+03
 SCF Done:  E(RHF) =  -174.807676528     A.U. after    9 cycles
 E2 =    -0.5190207415D+00 EUMP2 =    -0.17532669726992D+03
 E2 =    -0.5190207415D+00 EUMP2 =    -0.17532669726992D+03
 SCF Done:  E(RHF) =  -174.807733041     A.U. after    9 cycles
 E2 =    -0.5189643711D+00 EUMP2 =    -0.17532669741202D+03
 E2 =    -0.5189643711D+00 EUMP2 =    -0.17532669741202D+03
 SCF Done:  E(RHF) =  -174.807171663     A.U. after   10 cycles
 E2 =    -0.5194467013D+00 EUMP2 =    -0.17532661836406D+03
 E2 =    -0.5194467013D+00 EUMP2 =    -0.17532661836406D+03
 SCF Done:  E(RHF) =  -174.808078336     A.U. after   10 cycles
 E2 =    -0.5185331284D+00 EUMP2 =    -0.17532661146424D+03
 E2 =    -0.5185331284D+00 EUMP2 =    -0.17532661146424D+03

 Alpha  occ. eigenvalues --  -26.35023 -20.69659  -1.64932  -1.32089  -0.78074
 Alpha  occ. eigenvalues --   -0.72519  -0.68814  -0.61027  -0.54680
 Alpha virt. eigenvalues --    0.02906   0.09567   0.13015   0.15780   0.17680
 Alpha virt. eigenvalues --    0.20967   0.21736   0.23959   0.24632   0.26822
 Alpha virt. eigenvalues --    0.28552   0.33878   0.41917   0.43123   0.63560

 Mulliken charges:
               1
     1  O   -0.118664
     2  F   -0.154372
     3  H    0.273035
 Sum of Mulliken charges =  -0.00000

 Dipole moment (field-independent basis, Debye):
    X=             -1.6793    Y=              0.8099    Z=             -0.0000  Tot=              1.8645
 Quadrupole moment (field-independent basis, Debye-Ang):
   XX=             -9.2281   YY=            -10.2372   ZZ=            -11.5235
   XY=             -1.6341   XZ=              0.0000   YZ=              0.0000

  Exact polarizability:  10.102  -0.798  14.599  -0.000   0.000   8.933
 Approx polarizability:   8.030  -0.468  13.008  -0.000  -0.000   6.622

                      1                      2                      3
                     A'                     A'                     A'
 Frequencies --    980.3099              1404.5923              3763.8127
 Red. masses --     16.8968                 1.0926                 1.0685
 Frc consts  --      9.5671                 1.2700                 8.9181
 IR Inten    --      1.5387                65.8373                45.0851

 - Thermochemistry -
 -------------------
 Temperature   298.150 Kelvin.  Pressure   1.00000 Atm.
 Atom     1 has atomic number  8 and mass  15.99491

 Molecular mass:    36.00114 amu.
 Principal axes and moments of inertia in atomic units:
                           1         2         3
     Eigenvalues --     3.08039  66.30343  69.38381
           X           -0.04836   0.99883   0.00000
           Y            0.99883   0.04836   0.00000
           Z            0.00000   0.00000   1.00000
 This molecule is an asymmetric top.
 Rotational symmetry number  1.
 Rotational temperatures (Kelvin)     28.11784     1.30633     1.24833
 Rotational constants (GHZ):         585.88077    27.21943    26.01098
 Zero-point vibrational energy      36777.5 (Joules/Mol)
                                    8.79003 (Kcal/Mol)
 Vibrational temperatures:   1410.45  2020.90  5415.29
          (Kelvin)

 Zero-point correction=                           0.014008 (Hartree/Particle)
 Thermal correction to Energy=                    0.016887
 Thermal correction to Enthalpy=                  0.017832
 Thermal correction to Gibbs Free Energy=        -0.007869
 Sum of electronic and zero-point Energies=           -175.312703
 Sum of electronic and thermal Energies=              -175.309823
 Sum of electronic and thermal Enthalpies=            -175.308879
 Sum of electronic and thermal Free Energies=         -175.334580

                     E (Thermal)             CV                S
                      KCal/Mol        Cal/Mol-Kelvin    Cal/Mol-Kelvin
 Total                   10.597              6.465             54.092
 Electronic               0.000              0.000              0.000
 Translational            0.889              2.981             36.673
 Rotational               0.889              2.981             17.301
 Vibrational              8.820              0.503              0.119

 Optimization completed.
    -- Stationary point found.
 Normal termination of Gaussian 16 at Mon Dec 20 12:29:14 2021.
