 Gaussian 16, Revision A.03,
 Gaussian 16:  ES64L-G16RevA.03 25-Dec-2016

 --------------------------
 # mp2/aug-cc-pVDZ opt freq
 --------------------------

 ----
 blah
 ----
 Symbolic Z-matrix:
 Charge =  0 Multiplicity = 1

 SCF Done:  E(RHF) =  -188.786055010     A.U. after   13 cycles
 E2 =    -0.5326738203D+00 EUMP2 =    -0.18931872883045D+03
 SCF Done:  E(RHF) =  -188.787368859     A.U. after   11 cycles
 E2 =    -0.5324021027D+00 EUMP2 =    -0.18931977096127D+03
 SCF Done:  E(RHF) =  -188.787143529     A.U. after   10 cycles
 E2 =    -0.5327196326D+00 EUMP2 =    -0.18931986316191D+03
 SCF Done:  E(RHF) =  -188.787065440     A.U. after    8 cycles
 E2 =    -0.5328067196D+00 EUMP2 =    -0.18931987215923D+03
 Optimization completed.
    -- Stationary point found.
 Normal termination of Gaussian 16 at Mon Mar 20 10:50:06 2023.

 ----------------------------------------------------------------------
 #N Geom=AllCheck Guess=TCheck SCRF=Check GenChk RMP2(FC)/Aug-CC-pVDZ F
 req
 ----------------------------------------------------------------------

 Structure from the checkpoint file:  "/gscratch/scrubbed/gds001/Gau-5003.chk"
 ----
 blah
 ----
 Charge =  0 Multiplicity = 1

                         Standard orientation:
 ---------------------------------------------------------------------
 Center     Atomic      Atomic             Coordinates (Angstroms)
 Number     Number       Type             X           Y           Z
 ---------------------------------------------------------------------
      1          6           0        0.000000    0.390904    0.000000
      2          8           0        1.192315    0.189508    0.000000
      3          8           0       -0.909527   -0.626822    0.000000
      4          1           0       -0.460221    1.399982    0.000000
      5          1           0       -1.802076   -0.246898    0.000000
 ---------------------------------------------------------------------

 SCF Done:  E(RHF) =  -188.787065440     A.U. after    1 cycles
 E2 =    -0.5328067043D+00 EUMP2 =    -0.18931987214396D+03
 E2 =    -0.5328067043D+00 EUMP2 =    -0.18931987214396D+03

 The electronic state is 1-A'.
 Alpha  occ. eigenvalues --  -20.64108 -20.57776 -11.41376  -1.47063  -1.38025
 Alpha  occ. eigenvalues --   -0.87157  -0.79120  -0.67096  -0.63178  -0.60323
 Alpha  occ. eigenvalues --   -0.49286  -0.47033
 Alpha virt. eigenvalues --    0.02216   0.04781   0.08155   0.09479   0.12202
 Alpha virt. eigenvalues --    0.14733   0.15512   0.19834   0.20253   0.22567
 Alpha virt. eigenvalues --    0.23055   0.27744   0.28526   0.30647   0.31982

 Mulliken charges:
               1
     1  C    1.055009
     2  O   -0.600293
     3  O   -0.578525
     4  H   -0.084060
     5  H    0.207869
 Sum of Mulliken charges =   0.00000

 Dipole moment (field-independent basis, Debye):
    X=             -4.0126    Y=              1.9495    Z=             -0.0000  Tot=              4.4611
 Quadrupole moment (field-independent basis, Debye-Ang):
   XX=            -16.3529   YY=            -17.3057   ZZ=            -17.1548
   XY=             -1.6504   XZ=             -0.0000   YZ=             -0.0000

  Exact polarizability:  30.837   0.890  22.019  -0.000   0.000  16.014
 Approx polarizability:  23.919  -0.362  16.906   0.000  -0.000  14.132

                      1                      2                      3
                     A"                     A'                     A"
 Frequencies --    524.9319               642.6606              1019.8706
 Red. masses --      1.1166                 6.5537                 1.6785
 Frc consts  --      0.1813                 1.5948                 1.0287
 IR Inten    --     83.1858                10.6755                 0.3577

                      4                      5                      6
                     A'                     A'                     A'
 Frequencies --   1098.6825              1274.4129              1404.6471
 Red. masses --      2.8248                 1.5724                 1.1385
 Frc consts  --      2.0090                 1.5046                 1.3234
 IR Inten    --     65.8516               295.1673                 0.0764

                      7                      8                      9
                     A'                     A'                     A'
 Frequencies --   1804.0807              3053.4884              3790.2714
 Red. masses --      8.2299                 1.0908                 1.0664
 Frc consts  --     15.7817                 5.9920                 9.0260
 IR Inten    --    266.8194                62.9111                72.9985

 - Thermochemistry -
 -------------------
 Temperature   298.150 Kelvin.  Pressure   1.00000 Atm.
 Atom     1 has atomic number  6 and mass  12.00000

 Molecular mass:    46.00548 amu.
 Principal axes and moments of inertia in atomic units:
                           1         2         3
     Eigenvalues --    21.26826 157.45700 178.72527
           X            0.93572  -0.35274   0.00000
           Y            0.35274   0.93572   0.00000
           Z           -0.00000   0.00000   1.00000
 This molecule is an asymmetric top.
 Rotational symmetry number  1.
 Rotational temperatures (Kelvin)      4.07245     0.55008     0.48462
 Rotational constants (GHZ):          84.85606    11.46180    10.09785
 Zero-point vibrational energy      87405.4 (Joules/Mol)
                                   20.89040 (Kcal/Mol)
 Warning -- explicit consideration of   1 degrees of freedom as
           vibrations may cause significant error
 Vibrational temperatures:    755.26   924.65  1467.37  1580.76  1833.60
          (Kelvin)           2020.97  2595.67  4393.29  5453.36

 Zero-point correction=                           0.033291 (Hartree/Particle)
 Thermal correction to Energy=                    0.036548
 Thermal correction to Enthalpy=                  0.037492
 Thermal correction to Gibbs Free Energy=         0.009172
 Sum of electronic and zero-point Energies=           -189.286581
 Sum of electronic and thermal Energies=              -189.283324
 Sum of electronic and thermal Enthalpies=            -189.282380
 Sum of electronic and thermal Free Energies=         -189.310700

                     E (Thermal)             CV                S
                      KCal/Mol        Cal/Mol-Kelvin    Cal/Mol-Kelvin
 Total                   22.934              9.027             59.604
 Electronic               0.000              0.000              0.000
 Translational            0.889              2.981             37.404
 Rotational               0.889              2.981             21.020
 Vibrational             21.157              3.065              1.181
 Vibration     1          0.880              1.195              0.599

 Optimization completed.
    -- Stationary point found.
 Normal termination of Gaussian 16 at Mon Mar 20 10:50:36 2023.
