 Gaussian 16, Revision A.03,
 Gaussian 16:  ES64L-G16RevA.03 25-Dec-2016

 ----------------------------------------------
 # MP2/aug-cc-pVDZ opt freq=(vibrot,anharmonic)
 ----------------------------------------------

 -----------------
 hydrogen peroxide
 -----------------
 Symbolic Z-matrix:
 Charge =  0 Multiplicity = 1

 SCF Done:  E(RHF) =  -150.799069944     A.U. after   11 cycles
 E2 =    -0.4179890136D+00 EUMP2 =    -0.15121705895738D+03
 SCF Done:  E(RHF) =  -150.799041108     A.U. after   11 cycles
 E2 =    -0.4187343986D+00 EUMP2 =    -0.15121777550638D+03
 SCF Done:  E(RHF) =  -150.799265495     A.U. after   11 cycles
 E2 =    -0.4187474546D+00 EUMP2 =    -0.15121801294982D+03
 SCF Done:  E(RHF) =  -150.799383838     A.U. after   10 cycles
 E2 =    -0.4186460169D+00 EUMP2 =    -0.15121802985492D+03
 SCF Done:  E(RHF) =  -150.799409063     A.U. after    9 cycles
 E2 =    -0.4186210784D+00 EUMP2 =    -0.15121803014180D+03
 Optimization completed.
    -- Stationary point found.
 Normal termination of Gaussian 16 at Tue Dec  7 15:22:40 2021.

 ----------------------------------------------------------------------
 #N Geom=AllCheck Guess=TCheck SCRF=Check GenChk RMP2(FC)/Aug-CC-pVDZ F
 req
 ----------------------------------------------------------------------

 Structure from the checkpoint file:  "/gscratch/scrubbed/gds001/Gau-30786.chk"
 -----------------
 hydrogen peroxide
 -----------------
 Charge =  0 Multiplicity = 1

                         Standard orientation:
 ---------------------------------------------------------------------
 Center     Atomic      Atomic             Coordinates (Angstroms)
 Number     Number       Type             X           Y           Z
 ---------------------------------------------------------------------
      1          8           0        0.000000    0.735283   -0.058834
      2          8           0       -0.000000   -0.735283   -0.058834
      3          1           0        0.799992    0.889362    0.470671
      4          1           0       -0.799992   -0.889362    0.470671
 ---------------------------------------------------------------------

 SCF Done:  E(RHF) =  -150.799409063     A.U. after    1 cycles
 E2 =    -0.4186210783D+00 EUMP2 =    -0.15121803014167D+03
 E2 =    -0.4186210783D+00 EUMP2 =    -0.15121803014167D+03
 SCF Done:  E(RHF) =  -150.799392959     A.U. after    8 cycles
 E2 =    -0.4186359376D+00 EUMP2 =    -0.15121802889658D+03
 E2 =    -0.4186359376D+00 EUMP2 =    -0.15121802889658D+03
 SCF Done:  E(RHF) =  -150.799417458     A.U. after    8 cycles
 E2 =    -0.4186118276D+00 EUMP2 =    -0.15121802928596D+03
 E2 =    -0.4186118276D+00 EUMP2 =    -0.15121802928596D+03
 SCF Done:  E(RHF) =  -150.799072240     A.U. after    9 cycles
 E2 =    -0.4189517708D+00 EUMP2 =    -0.15121802401094D+03
 E2 =    -0.4189517708D+00 EUMP2 =    -0.15121802401094D+03
 SCF Done:  E(RHF) =  -150.799734384     A.U. after    9 cycles
 E2 =    -0.4182914103D+00 EUMP2 =    -0.15121802579399D+03
 E2 =    -0.4182914103D+00 EUMP2 =    -0.15121802579399D+03
 SCF Done:  E(RHF) =  -150.799393531     A.U. after   10 cycles
 E2 =    -0.4186250226D+00 EUMP2 =    -0.15121801855327D+03
 E2 =    -0.4186250226D+00 EUMP2 =    -0.15121801855327D+03
 SCF Done:  E(RHF) =  -150.799393531     A.U. after   10 cycles
 E2 =    -0.4186250226D+00 EUMP2 =    -0.15121801855327D+03
 E2 =    -0.4186250226D+00 EUMP2 =    -0.15121801855327D+03
 SCF Done:  E(RHF) =  -150.799457663     A.U. after    9 cycles
 E2 =    -0.4185593260D+00 EUMP2 =    -0.15121801698941D+03
 E2 =    -0.4185593260D+00 EUMP2 =    -0.15121801698941D+03
 SCF Done:  E(RHF) =  -150.799325480     A.U. after    9 cycles
 E2 =    -0.4186907976D+00 EUMP2 =    -0.15121801627792D+03
 E2 =    -0.4186907976D+00 EUMP2 =    -0.15121801627792D+03
 SCF Done:  E(RHF) =  -150.800051941     A.U. after   10 cycles
 E2 =    -0.4178809539D+00 EUMP2 =    -0.15121793289469D+03
 E2 =    -0.4178809539D+00 EUMP2 =    -0.15121793289469D+03
 SCF Done:  E(RHF) =  -150.798571657     A.U. after   10 cycles
 E2 =    -0.4193638897D+00 EUMP2 =    -0.15121793554710D+03
 E2 =    -0.4193638897D+00 EUMP2 =    -0.15121793554710D+03
 SCF Done:  E(RHF) =  -150.799311931     A.U. after   10 cycles
 E2 =    -0.4186222220D+00 EUMP2 =    -0.15121793415287D+03
 E2 =    -0.4186222220D+00 EUMP2 =    -0.15121793415287D+03
 SCF Done:  E(RHF) =  -150.799311931     A.U. after   10 cycles
 E2 =    -0.4186222220D+00 EUMP2 =    -0.15121793415287D+03
 E2 =    -0.4186222220D+00 EUMP2 =    -0.15121793415287D+03

 Alpha  occ. eigenvalues --  -20.64558 -20.64398  -1.47304  -1.22163  -0.71191
 Alpha  occ. eigenvalues --   -0.70863  -0.60645  -0.52252  -0.49076
 Alpha virt. eigenvalues --    0.03901   0.04958   0.13223   0.16856   0.19785
 Alpha virt. eigenvalues --    0.21378   0.23043   0.23408   0.24233   0.27765
 Alpha virt. eigenvalues --    0.30441   0.35212   0.41967   0.42695   0.45489

 Mulliken charges:
               1
     1  O   -0.198533
     2  O   -0.213523
     3  H    0.199128
     4  H    0.212927
 Sum of Mulliken charges =  -0.00000

 Dipole moment (field-independent basis, Debye):
    X=             -0.0106    Y=             -0.0046    Z=              1.7661  Tot=              1.7661
 Quadrupole moment (field-independent basis, Debye-Ang):
   XX=            -10.0845   YY=            -11.7026   ZZ=            -12.2940
   XY=              2.9155   XZ=             -0.0218   YZ=             -0.0050

  Exact polarizability:  13.578   1.489  18.215  -0.063  -0.033  12.453
 Approx polarizability:  10.905   0.871  15.546  -0.057  -0.012   9.660

                      1                      2                      3
                      A                      A                      B
 Frequencies --    393.9652               880.5244              1309.5323
 Red. masses --      1.0819                14.2209                 1.1045
 Frc consts  --      0.0989                 6.4962                 1.1160
 IR Inten    --    165.1597                 0.5221               113.3814

                      4                      5                      6
                      A                      A                      B
 Frequencies --   1413.8679              3767.3366              3768.6720
 Red. masses --      1.0849                 1.0697                 1.0673
 Frc consts  --      1.2777                 8.9449                 8.9316
 IR Inten    --      0.2642                15.2408                56.2109

 - Thermochemistry -
 -------------------
 Temperature   298.150 Kelvin.  Pressure   1.00000 Atm.
 Atom     1 has atomic number  8 and mass  15.99491

 Molecular mass:    34.00548 amu.
 Principal axes and moments of inertia in atomic units:
                           1         2         3
     Eigenvalues --     6.09058  69.76819  72.06172
           X            0.08069   0.99674   0.00000
           Y            0.99674  -0.08069  -0.00000
           Z           -0.00000  -0.00000   1.00000
 This molecule is an asymmetric top.
 Rotational symmetry number  2.
 Rotational temperatures (Kelvin)     14.22096     1.24145     1.20194
 Rotational constants (GHZ):         296.31664    25.86768    25.04438
 Zero-point vibrational energy      68988.0 (Joules/Mol)
                                   16.48854 (Kcal/Mol)
 Warning -- explicit consideration of   1 degrees of freedom as
           vibrations may cause significant error
 Vibrational temperatures:    566.83  1266.88  1884.12  2034.24  5420.36
          (Kelvin)           5422.28

 Zero-point correction=                           0.026276 (Hartree/Particle)
 Thermal correction to Energy=                    0.029500
 Thermal correction to Enthalpy=                  0.030444
 Thermal correction to Gibbs Free Energy=         0.004611
 Sum of electronic and zero-point Energies=           -151.191754
 Sum of electronic and thermal Energies=              -151.188530
 Sum of electronic and thermal Enthalpies=            -151.187586
 Sum of electronic and thermal Free Energies=         -151.213419

                     E (Thermal)             CV                S
                      KCal/Mol        Cal/Mol-Kelvin    Cal/Mol-Kelvin
 Total                   18.511              8.216             54.371
 Electronic               0.000              0.000              0.000
 Translational            0.889              2.981             36.503
 Rotational               0.889              2.981             16.689
 Vibrational             16.734              2.255              1.179
 Vibration     1          0.761              1.483              0.985

 ## DEPERTURBED TRANSITIONS MOMENTS ##

 Electric dipole : Fundamental Bands
 ------------------------------------------------------------------------

 ## AFTER VARIATIONAL CORRECTION

 Electric dipole : Fundamental Bands
 ------------------------------------------------------------------------

 Optimization completed.
    -- Stationary point found.
 Normal termination of Gaussian 16 at Tue Dec  7 15:24:48 2021.
