 Gaussian 16, Revision A.03,
 Gaussian 16:  ES64L-G16RevA.03 25-Dec-2016

 ----------------------------------------------
 # MP2/aug-cc-pVTZ opt freq=(vibrot,anharmonic)
 ----------------------------------------------

 -----------------
 hydrogen peroxide
 -----------------
 Symbolic Z-matrix:
 Charge =  0 Multiplicity = 1

 SCF Done:  E(RHF) =  -150.836524160     A.U. after   10 cycles
 E2 =    -0.5105911489D+00 EUMP2 =    -0.15134711530857D+03
 SCF Done:  E(RHF) =  -150.837969468     A.U. after   11 cycles
 E2 =    -0.5098095202D+00 EUMP2 =    -0.15134777898812D+03
 SCF Done:  E(RHF) =  -150.838428529     A.U. after   10 cycles
 E2 =    -0.5095281077D+00 EUMP2 =    -0.15134795663666D+03
 SCF Done:  E(RHF) =  -150.838641102     A.U. after   10 cycles
 E2 =    -0.5093429977D+00 EUMP2 =    -0.15134798409940D+03
 SCF Done:  E(RHF) =  -150.838796842     A.U. after    9 cycles
 E2 =    -0.5091895125D+00 EUMP2 =    -0.15134798635467D+03
 Optimization completed.
    -- Stationary point found.
 Normal termination of Gaussian 16 at Tue Dec  7 15:24:33 2021.

 ----------------------------------------------------------------------
 #N Geom=AllCheck Guess=TCheck SCRF=Check GenChk RMP2(FC)/Aug-CC-pVTZ F
 req
 ----------------------------------------------------------------------

 Structure from the checkpoint file:  "/gscratch/scrubbed/gds001/Gau-17338.chk"
 -----------------
 hydrogen peroxide
 -----------------
 Charge =  0 Multiplicity = 1

                         Standard orientation:
 ---------------------------------------------------------------------
 Center     Atomic      Atomic             Coordinates (Angstroms)
 Number     Number       Type             X           Y           Z
 ---------------------------------------------------------------------
      1          8           0        0.000000    0.726948   -0.058710
      2          8           0       -0.000000   -0.726948   -0.058710
      3          1           0        0.793433    0.888153    0.469681
      4          1           0       -0.793433   -0.888153    0.469681
 ---------------------------------------------------------------------

 SCF Done:  E(RHF) =  -150.838796842     A.U. after    1 cycles
 E2 =    -0.5091895121D+00 EUMP2 =    -0.15134798635425D+03
 E2 =    -0.5091895121D+00 EUMP2 =    -0.15134798635425D+03
 SCF Done:  E(RHF) =  -150.838784128     A.U. after    8 cycles
 E2 =    -0.5092009753D+00 EUMP2 =    -0.15134798510351D+03
 E2 =    -0.5092009753D+00 EUMP2 =    -0.15134798510351D+03
 SCF Done:  E(RHF) =  -150.838802233     A.U. after    8 cycles
 E2 =    -0.5091833663D+00 EUMP2 =    -0.15134798559897D+03
 E2 =    -0.5091833663D+00 EUMP2 =    -0.15134798559897D+03
 SCF Done:  E(RHF) =  -150.838490402     A.U. after    9 cycles
 E2 =    -0.5094896298D+00 EUMP2 =    -0.15134798003164D+03
 E2 =    -0.5094896298D+00 EUMP2 =    -0.15134798003164D+03
 SCF Done:  E(RHF) =  -150.839090281     A.U. after    9 cycles
 E2 =    -0.5088908066D+00 EUMP2 =    -0.15134798108736D+03
 E2 =    -0.5088908066D+00 EUMP2 =    -0.15134798108736D+03
 SCF Done:  E(RHF) =  -150.838781199     A.U. after    9 cycles
 E2 =    -0.5091933925D+00 EUMP2 =    -0.15134797459140D+03
 E2 =    -0.5091933925D+00 EUMP2 =    -0.15134797459140D+03
 SCF Done:  E(RHF) =  -150.838781199     A.U. after    9 cycles
 E2 =    -0.5091933925D+00 EUMP2 =    -0.15134797459139D+03
 E2 =    -0.5091933925D+00 EUMP2 =    -0.15134797459139D+03
 SCF Done:  E(RHF) =  -150.838858812     A.U. after    8 cycles
 E2 =    -0.5091140652D+00 EUMP2 =    -0.15134797287675D+03
 E2 =    -0.5091140652D+00 EUMP2 =    -0.15134797287675D+03
 SCF Done:  E(RHF) =  -150.838699729     A.U. after    8 cycles
 E2 =    -0.5092727563D+00 EUMP2 =    -0.15134797248526D+03
 E2 =    -0.5092727563D+00 EUMP2 =    -0.15134797248526D+03
 SCF Done:  E(RHF) =  -150.839388105     A.U. after    9 cycles
 E2 =    -0.5085001534D+00 EUMP2 =    -0.15134788825826D+03
 E2 =    -0.5085001534D+00 EUMP2 =    -0.15134788825826D+03
 SCF Done:  E(RHF) =  -150.838009275     A.U. after    9 cycles
 E2 =    -0.5098813631D+00 EUMP2 =    -0.15134789063800D+03
 E2 =    -0.5098813631D+00 EUMP2 =    -0.15134789063800D+03
 SCF Done:  E(RHF) =  -150.838698807     A.U. after    9 cycles
 E2 =    -0.5091906044D+00 EUMP2 =    -0.15134788941167D+03
 E2 =    -0.5091906044D+00 EUMP2 =    -0.15134788941167D+03
 SCF Done:  E(RHF) =  -150.838698827     A.U. after    9 cycles
 E2 =    -0.5091905847D+00 EUMP2 =    -0.15134788941154D+03
 E2 =    -0.5091905847D+00 EUMP2 =    -0.15134788941154D+03

 Alpha  occ. eigenvalues --  -20.63482 -20.63315  -1.47630  -1.21592  -0.71436
 Alpha  occ. eigenvalues --   -0.71117  -0.60973  -0.52043  -0.48881
 Alpha virt. eigenvalues --    0.03254   0.04179   0.11020   0.13173   0.15749
 Alpha virt. eigenvalues --    0.17037   0.18673   0.19414   0.19919   0.22582
 Alpha virt. eigenvalues --    0.25124   0.27175   0.32316   0.34217   0.34502

 Mulliken charges:
               1
     1  O   -0.260882
     2  O   -0.272839
     3  H    0.261111
     4  H    0.272609
 Sum of Mulliken charges =  -0.00000

 Dipole moment (field-independent basis, Debye):
    X=             -0.0112    Y=             -0.0049    Z=              1.7560  Tot=              1.7560
 Quadrupole moment (field-independent basis, Debye-Ang):
   XX=             -9.9549   YY=            -11.6445   ZZ=            -12.0927
   XY=              2.8981   XZ=             -0.0215   YZ=             -0.0057

  Exact polarizability:  13.793   1.470  18.354  -0.062  -0.032  12.826
 Approx polarizability:  10.968   0.871  15.334  -0.057  -0.012   9.819

                      1                      2                      3
                      A                      A                      B
 Frequencies --    384.9412               926.0152              1319.3460
 Red. masses --      1.0820                14.1094                 1.1056
 Frc consts  --      0.0945                 7.1285                 1.1339
 IR Inten    --    163.8579                 0.4588               112.5842

                      4                      5                      6
                      A                      A                      B
 Frequencies --   1422.4871              3786.6385              3787.3435
 Red. masses --      1.0873                 1.0698                 1.0674
 Frc consts  --      1.2963                 9.0374                 9.0207
 IR Inten    --      0.2744                17.4052                63.2059

 - Thermochemistry -
 -------------------
 Temperature   298.150 Kelvin.  Pressure   1.00000 Atm.
 Atom     1 has atomic number  8 and mass  15.99491

 Molecular mass:    34.00548 amu.
 Principal axes and moments of inertia in atomic units:
                           1         2         3
     Eigenvalues --     6.00651  68.35323  70.57866
           X            0.08163   0.99666   0.00000
           Y            0.99666  -0.08163  -0.00000
           Z            0.00000  -0.00000   1.00000
 This molecule is an asymmetric top.
 Rotational symmetry number  2.
 Rotational temperatures (Kelvin)     14.42000     1.26715     1.22720
 Rotational constants (GHZ):         300.46406    26.40316    25.57064
 Zero-point vibrational energy      69543.5 (Joules/Mol)
                                   16.62130 (Kcal/Mol)
 Warning -- explicit consideration of   1 degrees of freedom as
           vibrations may cause significant error
 Vibrational temperatures:    553.84  1332.33  1898.24  2046.64  5448.13
          (Kelvin)           5449.14

 Zero-point correction=                           0.026488 (Hartree/Particle)
 Thermal correction to Energy=                    0.029711
 Thermal correction to Enthalpy=                  0.030655
 Thermal correction to Gibbs Free Energy=         0.004844
 Sum of electronic and zero-point Energies=           -151.321499
 Sum of electronic and thermal Energies=              -151.318276
 Sum of electronic and thermal Enthalpies=            -151.317332
 Sum of electronic and thermal Free Energies=         -151.343143

                     E (Thermal)             CV                S
                      KCal/Mol        Cal/Mol-Kelvin    Cal/Mol-Kelvin
 Total                   18.644              8.166             54.324
 Electronic               0.000              0.000              0.000
 Translational            0.889              2.981             36.503
 Rotational               0.889              2.981             16.634
 Vibrational             16.866              2.205              1.187
 Vibration     1          0.754              1.502              1.020

 ## DEPERTURBED TRANSITIONS MOMENTS ##

 Electric dipole : Fundamental Bands
 ------------------------------------------------------------------------

 ## AFTER VARIATIONAL CORRECTION

 Electric dipole : Fundamental Bands
 ------------------------------------------------------------------------

 Optimization completed.
    -- Stationary point found.
 Normal termination of Gaussian 16 at Tue Dec  7 15:38:50 2021.
