 Gaussian 16, Revision A.03,
 Gaussian 16:  ES64L-G16RevA.03 25-Dec-2016

 ----------------------------------------------
 # MP2/aug-cc-pVDZ Opt Freq=(vibrot,anharmonic)
 ----------------------------------------------

 ----------------------------
 Water Anharmonic Frequencies
 ----------------------------
 Symbolic Z-matrix:
 Charge =  0 Multiplicity = 1

 SCF Done:  E(RHF) =  -76.0408272798     A.U. after   10 cycles
 E2 =    -0.2200801240D+00 EUMP2 =    -0.76260907403747D+02
 SCF Done:  E(RHF) =  -76.0407586822     A.U. after    8 cycles
 E2 =    -0.2201510402D+00 EUMP2 =    -0.76260909722403D+02
 Optimization completed.
    -- Stationary point found.
 Normal termination of Gaussian 16 at Mon Aug  3 14:14:10 2020.

 ----------------------------------------------------------------------
 #N Geom=AllCheck Guess=TCheck SCRF=Check GenChk RMP2(FC)/Aug-CC-pVDZ F
 req
 ----------------------------------------------------------------------

 Structure from the checkpoint file:  "h2o.chk"
 ----------------------------
 Water Anharmonic Frequencies
 ----------------------------
 Charge =  0 Multiplicity = 1

                         Standard orientation:
 ---------------------------------------------------------------------
 Center     Atomic      Atomic             Coordinates (Angstroms)
 Number     Number       Type             X           Y           Z
 ---------------------------------------------------------------------
      1          8           0        0.000000    0.000000    0.119064
      2          1           0        0.000000    0.760741   -0.476256
      3          1           0       -0.000000   -0.760741   -0.476256
 ---------------------------------------------------------------------

 SCF Done:  E(RHF) =  -76.0407586822     A.U. after    1 cycles
 E2 =    -0.2201510401D+00 EUMP2 =    -0.76260909722269D+02
 E2 =    -0.2201510401D+00 EUMP2 =    -0.76260909722269D+02
 SCF Done:  E(RHF) =  -76.0406359907     A.U. after    8 cycles
 E2 =    -0.2202573876D+00 EUMP2 =    -0.76260893378258D+02
 E2 =    -0.2202573876D+00 EUMP2 =    -0.76260893378258D+02
 SCF Done:  E(RHF) =  -76.0408368729     A.U. after    8 cycles
 E2 =    -0.2200536350D+00 EUMP2 =    -0.76260890507985D+02
 E2 =    -0.2200536350D+00 EUMP2 =    -0.76260890507985D+02
 SCF Done:  E(RHF) =  -76.0412956474     A.U. after    8 cycles
 E2 =    -0.2195168443D+00 EUMP2 =    -0.76260812491743D+02
 E2 =    -0.2195168443D+00 EUMP2 =    -0.76260812491743D+02
 SCF Done:  E(RHF) =  -76.0400233942     A.U. after    8 cycles
 E2 =    -0.2207881366D+00 EUMP2 =    -0.76260811530765D+02
 E2 =    -0.2207881366D+00 EUMP2 =    -0.76260811530765D+02
 SCF Done:  E(RHF) =  -76.0406548750     A.U. after    8 cycles
 E2 =    -0.2201501015D+00 EUMP2 =    -0.76260804976482D+02
 E2 =    -0.2201501015D+00 EUMP2 =    -0.76260804976482D+02
 SCF Done:  E(RHF) =  -76.0406548750     A.U. after    8 cycles
 E2 =    -0.2201501015D+00 EUMP2 =    -0.76260804976482D+02
 E2 =    -0.2201501015D+00 EUMP2 =    -0.76260804976482D+02

 Alpha  occ. eigenvalues --  -20.57899  -1.35263  -0.71337  -0.58513  -0.50890
 Alpha virt. eigenvalues --    0.03523   0.05794   0.17410   0.19717   0.22205
 Alpha virt. eigenvalues --    0.23190   0.28792   0.33125   0.38548   0.40165
 Alpha virt. eigenvalues --    0.43163   0.53852   0.64589   0.65811   0.80628

 Mulliken charges:
               1
     1  O   -0.238581
     2  H    0.127280
     3  H    0.111301
 Sum of Mulliken charges =  -0.00000

 Dipole moment (field-independent basis, Debye):
    X=             -0.0000    Y=              0.0126    Z=             -1.8790  Tot=              1.8791
 Quadrupole moment (field-independent basis, Debye-Ang):
   XX=             -7.9363   YY=             -4.5464   ZZ=             -6.5334
   XY=              0.0000   XZ=             -0.0000   YZ=             -0.0216

  Exact polarizability:   8.776  -0.000   9.960   0.000  -0.072   9.173
 Approx polarizability:   5.939  -0.000   7.870  -0.000  -0.064   7.098

 - Thermochemistry -
 -------------------
 Temperature   298.150 Kelvin.  Pressure   1.00000 Atm.
 Atom     1 has atomic number  8 and mass  15.99491

 Molecular mass:    18.01056 amu.
 Principal axes and moments of inertia in atomic units:
                           1         2         3
     Eigenvalues --     2.26552   4.16568   6.43120
           X            0.00000   0.00000   1.00000
           Y            1.00000   0.00000   0.00000
           Z            0.00000   1.00000   0.00000
 This molecule is an asymmetric top.
 Rotational symmetry number  2.
 Rotational temperatures (Kelvin)     38.23139    20.79225    13.46777
 Rotational constants (GHZ):         796.61295   433.24025   280.62275
 Zero-point vibrational energy      55992.8 (Joules/Mol)
                                   13.38261 (Kcal/Mol)
 Vibrational temperatures:   2333.83  5470.71  5664.24
          (Kelvin)

 Zero-point correction=                           0.021327 (Hartree/Particle)
 Thermal correction to Energy=                    0.024162
 Thermal correction to Enthalpy=                  0.025106
 Thermal correction to Gibbs Free Energy=         0.003668
 Sum of electronic and zero-point Energies=            -76.239583
 Sum of electronic and thermal Energies=               -76.236748
 Sum of electronic and thermal Enthalpies=             -76.235803
 Sum of electronic and thermal Free Energies=          -76.257242

                     E (Thermal)             CV                S
                      KCal/Mol        Cal/Mol-Kelvin    Cal/Mol-Kelvin
 Total                   15.162              6.010             45.120
 Electronic               0.000              0.000              0.000
 Translational            0.889              2.981             34.608
 Rotational               0.889              2.981             10.505
 Vibrational             13.384              0.049              0.007

 Optimization completed.
    -- Stationary point found.
 Normal termination of Gaussian 16 at Mon Aug  3 14:14:46 2020.
