 Gaussian 16, Revision A.03,
 Gaussian 16:  ES64L-G16RevA.03 25-Dec-2016

 ----------------------------------------------
 # MP2/aug-cc-pVTZ opt freq=(vibrot,anharmonic)
 ----------------------------------------------

 -----
 water
 -----
 Symbolic Z-matrix:
 Charge =  0 Multiplicity = 1

 SCF Done:  E(RHF) =  -76.0594826752     A.U. after   10 cycles
 E2 =    -0.2693355783D+00 EUMP2 =    -0.76328818253521D+02
 SCF Done:  E(RHF) =  -76.0602685437     A.U. after    8 cycles
 E2 =    -0.2687206439D+00 EUMP2 =    -0.76328989187661D+02
 SCF Done:  E(RHF) =  -76.0602727015     A.U. after    6 cycles
 E2 =    -0.2687195761D+00 EUMP2 =    -0.76328992277543D+02
 Optimization completed.
    -- Stationary point found.
 Normal termination of Gaussian 16 at Tue Nov 30 10:34:19 2021.

 ----------------------------------------------------------------------
 #N Geom=AllCheck Guess=TCheck SCRF=Check GenChk RMP2(FC)/Aug-CC-pVTZ F
 req
 ----------------------------------------------------------------------

 Structure from the checkpoint file:  "/gscratch/scrubbed/gds001/Gau-15556.chk"
 -----
 water
 -----
 Charge =  0 Multiplicity = 1

                         Standard orientation:
 ---------------------------------------------------------------------
 Center     Atomic      Atomic             Coordinates (Angstroms)
 Number     Number       Type             X           Y           Z
 ---------------------------------------------------------------------
      1          8           0       -0.000000    0.000000    0.118292
      2          1           0        0.000000    0.757995   -0.473167
      3          1           0       -0.000000   -0.757995   -0.473167
 ---------------------------------------------------------------------

 SCF Done:  E(RHF) =  -76.0602727015     A.U. after    1 cycles
 E2 =    -0.2687195797D+00 EUMP2 =    -0.76328992281222D+02
 E2 =    -0.2687195797D+00 EUMP2 =    -0.76328992281222D+02
 SCF Done:  E(RHF) =  -76.0601403325     A.U. after    8 cycles
 E2 =    -0.2688323795D+00 EUMP2 =    -0.76328972712048D+02
 E2 =    -0.2688323795D+00 EUMP2 =    -0.76328972712048D+02
 SCF Done:  E(RHF) =  -76.0603605787     A.U. after    8 cycles
 E2 =    -0.2686154224D+00 EUMP2 =    -0.76328976001145D+02
 E2 =    -0.2686154224D+00 EUMP2 =    -0.76328976001145D+02
 SCF Done:  E(RHF) =  -76.0595965458     A.U. after    8 cycles
 E2 =    -0.2692972080D+00 EUMP2 =    -0.76328893753770D+02
 E2 =    -0.2692972080D+00 EUMP2 =    -0.76328893753770D+02
 SCF Done:  E(RHF) =  -76.0607483199     A.U. after    8 cycles
 E2 =    -0.2681451475D+00 EUMP2 =    -0.76328893467368D+02
 E2 =    -0.2681451475D+00 EUMP2 =    -0.76328893467368D+02
 SCF Done:  E(RHF) =  -76.0601681672     A.U. after    8 cycles
 E2 =    -0.2687188527D+00 EUMP2 =    -0.76328887019932D+02
 E2 =    -0.2687188527D+00 EUMP2 =    -0.76328887019932D+02
 SCF Done:  E(RHF) =  -76.0601681672     A.U. after    8 cycles
 E2 =    -0.2687188527D+00 EUMP2 =    -0.76328887019933D+02
 E2 =    -0.2687188527D+00 EUMP2 =    -0.76328887019933D+02

 Alpha  occ. eigenvalues --  -20.56812  -1.35180  -0.71470  -0.58499  -0.51015
 Alpha virt. eigenvalues --    0.02936   0.04770   0.13588   0.15879   0.17514
 Alpha virt. eigenvalues --    0.18310   0.22709   0.24493   0.26541   0.29997
 Alpha virt. eigenvalues --    0.31010   0.36579   0.43718   0.46611   0.59915

 Mulliken charges:
               1
     1  O   -0.429480
     2  H    0.209020
     3  H    0.220460
 Sum of Mulliken charges =  -0.00000

 Dipole moment (field-independent basis, Debye):
    X=             -0.0000    Y=             -0.0134    Z=             -1.8601  Tot=              1.8601
 Quadrupole moment (field-independent basis, Debye-Ang):
   XX=             -7.8538   YY=             -4.4610   ZZ=             -6.4734
   XY=              0.0000   XZ=              0.0000   YZ=              0.0213

  Exact polarizability:   9.249  -0.000  10.019  -0.000   0.070   9.555
 Approx polarizability:   6.199  -0.000   7.864   0.000   0.063   7.274

                      1                      2                      3
                     A1                     A1                     B2
 Frequencies --   1628.8841              3821.0390              3946.5882
 Red. masses --      1.0828                 1.0451                 1.0814
 Frc consts  --      1.6927                 8.9899                 9.9241
 IR Inten    --     71.6087                 5.5596                75.3089

 - Thermochemistry -
 -------------------
 Temperature   298.150 Kelvin.  Pressure   1.00000 Atm.
 Atom     1 has atomic number  8 and mass  15.99491

 Molecular mass:    18.01056 amu.
 Principal axes and moments of inertia in atomic units:
                           1         2         3
     Eigenvalues --     2.23623   4.13567   6.37190
           X            0.00000   0.00000   1.00000
           Y            1.00000   0.00000  -0.00000
           Z           -0.00000   1.00000  -0.00000
 This molecule is an asymmetric top.
 Rotational symmetry number  2.
 Rotational temperatures (Kelvin)     38.73217    20.94313    13.59311
 Rotational constants (GHZ):         807.04745   436.38410   283.23447
 Zero-point vibrational energy      56203.6 (Joules/Mol)
                                   13.43299 (Kcal/Mol)
 Vibrational temperatures:   2343.60  5497.62  5678.26
          (Kelvin)

 Zero-point correction=                           0.021407 (Hartree/Particle)
 Thermal correction to Energy=                    0.024242
 Thermal correction to Enthalpy=                  0.025186
 Thermal correction to Gibbs Free Energy=         0.003762
 Sum of electronic and zero-point Energies=            -76.307585
 Sum of electronic and thermal Energies=               -76.304750
 Sum of electronic and thermal Enthalpies=             -76.303806
 Sum of electronic and thermal Free Energies=          -76.325230

                     E (Thermal)             CV                S
                      KCal/Mol        Cal/Mol-Kelvin    Cal/Mol-Kelvin
 Total                   15.212              6.009             45.091
 Electronic               0.000              0.000              0.000
 Translational            0.889              2.981             34.608
 Rotational               0.889              2.981             10.476
 Vibrational             13.435              0.047              0.007

 Optimization completed.
    -- Stationary point found.
 Normal termination of Gaussian 16 at Tue Nov 30 10:37:01 2021.
