 Gaussian 16, Revision A.03,
 Gaussian 16:  ES64L-G16RevA.03 25-Dec-2016

 ----------------------------------------------
 # mp2/aug-cc-pVDZ opt freq=(vibrot,anharmonic)
 ----------------------------------------------

 -----
 HClO4
 -----
 Symbolic Z-matrix:
 Charge =  0 Multiplicity = 1

 SCF Done:  E(RHF) =  -759.118209482     A.U. after   14 cycles
 E2 =    -0.9947012121D+00 EUMP2 =    -0.76011291069368D+03
 SCF Done:  E(RHF) =  -759.122992638     A.U. after   15 cycles
 E2 =    -0.1002510221D+01 EUMP2 =    -0.76012550285870D+03
 SCF Done:  E(RHF) =  -759.122166867     A.U. after   13 cycles
 E2 =    -0.1005418571D+01 EUMP2 =    -0.76012758543825D+03
 SCF Done:  E(RHF) =  -759.120272984     A.U. after   12 cycles
 E2 =    -0.1007545578D+01 EUMP2 =    -0.76012781856197D+03
 SCF Done:  E(RHF) =  -759.119114245     A.U. after   12 cycles
 E2 =    -0.1008759716D+01 EUMP2 =    -0.76012787396128D+03
 SCF Done:  E(RHF) =  -759.119126365     A.U. after   11 cycles
 E2 =    -0.1008756785D+01 EUMP2 =    -0.76012788314979D+03
 SCF Done:  E(RHF) =  -759.119210958     A.U. after   11 cycles
 E2 =    -0.1008675662D+01 EUMP2 =    -0.76012788661989D+03
 SCF Done:  E(RHF) =  -759.119291177     A.U. after   11 cycles
 E2 =    -0.1008597850D+01 EUMP2 =    -0.76012788902718D+03
 SCF Done:  E(RHF) =  -759.119363413     A.U. after   11 cycles
 E2 =    -0.1008527733D+01 EUMP2 =    -0.76012789114594D+03
 SCF Done:  E(RHF) =  -759.119373962     A.U. after   11 cycles
 E2 =    -0.1008518474D+01 EUMP2 =    -0.76012789243535D+03
 E2 =    -0.1008555768D+01 EUMP2 =    -0.76012789283497D+03
 Optimization completed.
    -- Stationary point found.

 1\1\GINC-N2169\FOpt\RMP2-FC\Aug-CC-pVDZ\Cl1H1O4\GDS001\24-Jun-2021\0\\
 # mp2/aug-cc-pVDZ opt freq=(vibrot,anharmonic)\\HClO4\\0,1\Cl,0.199080
 0198,0.0528198237,0.0250461343\O,0.0768581104,1.5165673593,0.007658506
 4\O,0.6169104833,-0.5564855173,-1.2335428305\O,0.8537780328,-0.4745826
 286,1.2295597762\O,-1.4336722204,-0.5272636043,0.1179281531\H,-1.75620
 199,-0.1371792542,0.9583092052\\Version=ES64L-G16RevA.03\State=1-A\HF=
 -759.1193371\MP2=-760.1278928\RMSD=8.705e-09\RMSF=6.720e-05\Dipole=-0.
 5505325,0.0998393,0.5127803\PG=C01 [X(Cl1H1O4)]\\@

 Normal termination of Gaussian 16 at Thu Jun 24 14:46:06 2021.

 ----------------------------------------------------------------------
 #N Geom=AllCheck Guess=TCheck SCRF=Check GenChk RMP2(FC)/Aug-CC-pVDZ F
 req
 ----------------------------------------------------------------------

 Structure from the checkpoint file:  "hclo4_mp2_avdz_opt_anharm.chk"
 -----
 HClO4
 -----
 Charge =  0 Multiplicity = 1

                         Standard orientation:
 ---------------------------------------------------------------------
 Center     Atomic      Atomic             Coordinates (Angstroms)
 Number     Number       Type             X           Y           Z
 ---------------------------------------------------------------------
      1         17           0        0.156334   -0.001016   -0.000016
      2          8           0        0.452794   -0.746068    1.230759
      3          8           0        0.567038    1.399414    0.000457
      4          8           0        0.452788   -0.745258   -1.231217
      5          8           0       -1.568712    0.186653    0.000046
      6          1           0       -1.888942   -0.740647   -0.000082
 ---------------------------------------------------------------------

 E2 =    -0.1008555777D+01 EUMP2 =    -0.76012789284435D+03
 E2 =    -0.1008555777D+01 EUMP2 =    -0.76012789284435D+03
 E2 =    -0.1008557997D+01 EUMP2 =    -0.76012789264718D+03
 E2 =    -0.1008557997D+01 EUMP2 =    -0.76012789264718D+03
 E2 =    -0.1008558004D+01 EUMP2 =    -0.76012789265849D+03
 E2 =    -0.1008558004D+01 EUMP2 =    -0.76012789265849D+03
 E2 =    -0.1008540327D+01 EUMP2 =    -0.76012789217128D+03
 E2 =    -0.1008540327D+01 EUMP2 =    -0.76012789217128D+03
 E2 =    -0.1008571843D+01 EUMP2 =    -0.76012789179291D+03
 SCF Done:  E(RHF) =  -759.119103150     A.U. after    9 cycles
 E2 =    -0.1008783126D+01 EUMP2 =    -0.76012788627581D+03
 E2 =    -0.1008783126D+01 EUMP2 =    -0.76012788627581D+03
 SCF Done:  E(RHF) =  -759.119560755     A.U. after    9 cycles
 E2 =    -0.1008323905D+01 EUMP2 =    -0.76012788465995D+03
 E2 =    -0.1008323905D+01 EUMP2 =    -0.76012788465995D+03
 SCF Done:  E(RHF) =  -759.119266966     A.U. after   10 cycles
 E2 =    -0.1008617149D+01 EUMP2 =    -0.76012788411553D+03
 E2 =    -0.1008617149D+01 EUMP2 =    -0.76012788411553D+03
 SCF Done:  E(RHF) =  -759.119382405     A.U. after   10 cycles
 E2 =    -0.1008500977D+01 EUMP2 =    -0.76012788338181D+03
 E2 =    -0.1008500977D+01 EUMP2 =    -0.76012788338181D+03
 SCF Done:  E(RHF) =  -759.119329543     A.U. after   10 cycles
 E2 =    -0.1008552821D+01 EUMP2 =    -0.76012788236469D+03
 E2 =    -0.1008552821D+01 EUMP2 =    -0.76012788236469D+03
 SCF Done:  E(RHF) =  -759.119329526     A.U. after   10 cycles
 E2 =    -0.1008553313D+01 EUMP2 =    -0.76012788283902D+03
 E2 =    -0.1008553313D+01 EUMP2 =    -0.76012788283902D+03
 SCF Done:  E(RHF) =  -759.119263357     A.U. after   10 cycles
 E2 =    -0.1008617689D+01 EUMP2 =    -0.76012788104631D+03
 E2 =    -0.1008617689D+01 EUMP2 =    -0.76012788104631D+03
 SCF Done:  E(RHF) =  -759.119390712     A.U. after   10 cycles
 E2 =    -0.1008491547D+01 EUMP2 =    -0.76012788225953D+03
 E2 =    -0.1008491547D+01 EUMP2 =    -0.76012788225953D+03
 SCF Done:  E(RHF) =  -759.118755788     A.U. after   10 cycles
 E2 =    -0.1009047994D+01 EUMP2 =    -0.76012780378155D+03
 E2 =    -0.1009047994D+01 EUMP2 =    -0.76012780378155D+03
 SCF Done:  E(RHF) =  -759.119734927     A.U. after   10 cycles
 E2 =    -0.1008065563D+01 EUMP2 =    -0.76012780048942D+03
 E2 =    -0.1008065563D+01 EUMP2 =    -0.76012780048942D+03

 Alpha  occ. eigenvalues -- -105.32529 -20.71085 -20.66683 -20.66680 -20.66540
 Alpha  occ. eigenvalues --  -10.99768  -8.46759  -8.46742  -8.46713  -1.69294
 Alpha  occ. eigenvalues --   -1.45671  -1.45188  -1.44514  -1.00752  -0.85947
 Alpha  occ. eigenvalues --   -0.80368  -0.79941  -0.72694  -0.64196  -0.61140
 Alpha  occ. eigenvalues --   -0.60318  -0.56486  -0.55644  -0.55069  -0.52994
 Alpha virt. eigenvalues --    0.02418   0.05737   0.09179   0.10455   0.10483
 Alpha virt. eigenvalues --    0.13531   0.17074   0.18669   0.19238   0.19491
 Alpha virt. eigenvalues --    0.20605   0.21130   0.24380   0.25487   0.26664

 Mulliken charges:
               1
     1  Cl   2.736714
     2  O   -0.792232
     3  O   -0.751606
     4  O   -0.792209
     5  O   -0.575381
     6  H    0.174715
 Sum of Mulliken charges =  -0.00000

 Dipole moment (field-independent basis, Debye):
    X=             -1.4357    Y=             -1.2651    Z=             -0.0005  Tot=              1.9136
 Quadrupole moment (field-independent basis, Debye-Ang):
   XX=            -32.8650   YY=            -36.3613   ZZ=            -38.0328
   XY=              3.1797   XZ=              0.0003   YZ=              0.0004

  Exact polarizability:  40.305   0.488  39.226   0.000  -0.000  38.221
 Approx polarizability:  34.692  -0.099  35.714   0.000   0.000  33.966

                      1                      2                      3
                      A                      A                      A
 Frequencies --    166.5780               357.3848               366.3076
 Red. masses --      1.1244                 8.4969                 8.6849
 Frc consts  --      0.0184                 0.6394                 0.6866
 IR Inten    --     70.7304                 3.9916                14.5159

                      4                      5                      6
                      A                      A                      A
 Frequencies --    493.6672               515.4512               520.9648
 Red. masses --     10.4849                13.8633                17.6813
 Frc consts  --      1.5055                 2.1702                 2.8274
 IR Inten    --      4.8358                20.2763                20.8843

                      7                      8                      9
                      A                      A                      A
 Frequencies --    642.5131              1044.7758              1160.1704
 Red. masses --     20.5637                15.6199                 1.4109
 Frc consts  --      5.0017                10.0456                 1.1189
 IR Inten    --    220.0406                61.6639                93.9382

                     10                     11                     12
                      A                      A                      A
 Frequencies --   1231.2756              1286.9765              3663.2120
 Red. masses --     20.4354                 4.6482                 1.0662
 Frc consts  --     18.2534                 4.5360                 8.4296
 IR Inten    --    277.9099               239.4831               101.0408

 - Thermochemistry -
 -------------------
 Temperature   298.150 Kelvin.  Pressure   1.00000 Atm.
 Atom     1 has atomic number 17 and mass  34.96885

 Molecular mass:    99.95634 amu.
 Principal axes and moments of inertia in atomic units:
                           1         2         3
     Eigenvalues --   351.17799 372.45512 377.41701
           X            0.97013   0.24259   0.00004
           Y           -0.24259   0.97013   0.00006
           Z           -0.00002  -0.00007   1.00000
 This molecule is an asymmetric top.
 Rotational symmetry number  1.
 Rotational temperatures (Kelvin)      0.24664     0.23255     0.22949
 Rotational constants (GHZ):           5.13911     4.84553     4.78182
 Zero-point vibrational energy      68481.9 (Joules/Mol)
                                   16.36756 (Kcal/Mol)
 Warning -- explicit consideration of   6 degrees of freedom as
           vibrations may cause significant error
 Vibrational temperatures:    239.67   514.20   527.03   710.28   741.62
          (Kelvin)            749.55   924.43  1503.20  1669.23  1771.53
                             1851.67  5270.55

 Zero-point correction=                           0.026083 (Hartree/Particle)
 Thermal correction to Energy=                    0.031094
 Thermal correction to Enthalpy=                  0.032038
 Thermal correction to Gibbs Free Energy=        -0.002314
 Sum of electronic and zero-point Energies=           -760.101809
 Sum of electronic and thermal Energies=              -760.096799
 Sum of electronic and thermal Enthalpies=            -760.095855
 Sum of electronic and thermal Free Energies=         -760.130207

                     E (Thermal)             CV                S
                      KCal/Mol        Cal/Mol-Kelvin    Cal/Mol-Kelvin
 Total                   19.512             16.476             72.300
 Electronic               0.000              0.000              0.000
 Translational            0.889              2.981             39.717
 Rotational               0.889              2.981             25.404
 Vibrational             17.734             10.515              7.179
 Vibration     1          0.624              1.884              2.474
 Vibration     2          0.733              1.560              1.133
 Vibration     3          0.739              1.542              1.095
 Vibration     4          0.849              1.264              0.674
 Vibration     5          0.870              1.216              0.621
 Vibration     6          0.876              1.204              0.608

 ## DEPERTURBED TRANSITIONS MOMENTS ##

 Electric dipole : Fundamental Bands
 ------------------------------------------------------------------------

 ## AFTER VARIATIONAL CORRECTION

 Electric dipole : Fundamental Bands
 ------------------------------------------------------------------------

 Optimization completed.
    -- Stationary point found.

 1\1\GINC-N2169\Freq\RMP2-FC\Aug-CC-pVDZ\Cl1H1O4\GDS001\24-Jun-2021\0\\
 #N Geom=AllCheck Guess=TCheck SCRF=Check GenChk RMP2(FC)/Aug-CC-pVDZ F
 req\\HClO4\\0,1\Cl,0.1990800198,0.0528198237,0.0250461343\O,0.07685811
 04,1.5165673593,0.0076585064\O,0.6169104833,-0.5564855173,-1.233542830
 5\O,0.8537780328,-0.4745826286,1.2295597762\O,-1.4336722204,-0.5272636
 043,0.1179281531\H,-1.75620199,-0.1371792542,0.9583092052\\Version=ES6
 4L-G16RevA.03\State=1-A\HF=-759.1193371\MP2=-760.1278928\RMSD=2.047e-0
 9\RMSF=6.720e-05\ZeroPoint=0.0260834\Thermal=0.0310938\Dipole=-0.55053

 Normal termination of Gaussian 16 at Thu Jun 24 15:24:47 2021.
