 Gaussian 16, Revision A.03,
 Gaussian 16:  ES64L-G16RevA.03 25-Dec-2016

 ----------------------------------------------
 # mp2/aug-cc-pVTZ opt freq=(vibrot,anharmonic)
 ----------------------------------------------

 -----
 HClO4
 -----
 Symbolic Z-matrix:
 Charge =  0 Multiplicity = 1

 SCF Done:  E(RHF) =  -759.268876930     A.U. after   13 cycles
 E2 =    -0.1224599127D+01 EUMP2 =    -0.76049347605675D+03
 SCF Done:  E(RHF) =  -759.279477648     A.U. after   13 cycles
 E2 =    -0.1225259038D+01 EUMP2 =    -0.76050473668614D+03
 SCF Done:  E(RHF) =  -759.283492662     A.U. after   11 cycles
 E2 =    -0.1223217520D+01 EUMP2 =    -0.76050671018197D+03
 SCF Done:  E(RHF) =  -759.284792826     A.U. after   10 cycles
 E2 =    -0.1222035753D+01 EUMP2 =    -0.76050682857986D+03
 SCF Done:  E(RHF) =  -759.284979572     A.U. after   10 cycles
 E2 =    -0.1221869556D+01 EUMP2 =    -0.76050684912832D+03
 SCF Done:  E(RHF) =  -759.284927568     A.U. after    9 cycles
 E2 =    -0.1221928805D+01 EUMP2 =    -0.76050685637256D+03
 SCF Done:  E(RHF) =  -759.284796451     A.U. after   11 cycles
 E2 =    -0.1222072080D+01 EUMP2 =    -0.76050686853072D+03
 SCF Done:  E(RHF) =  -759.284792470     A.U. after    9 cycles
 E2 =    -0.1222076927D+01 EUMP2 =    -0.76050686939719D+03
 Optimization completed.
    -- Stationary point found.

 1\1\GINC-N2286\FOpt\RMP2-FC\Aug-CC-pVTZ\Cl1H1O4\GDS001\24-Jun-2021\0\\
 # mp2/aug-cc-pVTZ opt freq=(vibrot,anharmonic)\\HClO4\\0,1\Cl,0.181606
 682,0.0477210673,0.0275907244\O,0.0649577172,1.4725129626,0.0105256275
 \O,0.5976381398,-0.5406075572,-1.1965720376\O,0.8213308652,-0.46491138
 25,1.1988598452\O,-1.3836914656,-0.508939301,0.1161621153\H,-1.7250895
 027,-0.1318996107,0.9483926699\\Version=ES64L-G16RevA.03\State=1-A\HF=
 -759.2847925\MP2=-760.5068694\RMSD=5.572e-09\RMSF=5.332e-05\Dipole=-0.
 6610569,0.0659662,0.5286488\PG=C01 [X(Cl1H1O4)]\\@

 Normal termination of Gaussian 16 at Thu Jun 24 14:56:38 2021.

 ----------------------------------------------------------------------
 #N Geom=AllCheck Guess=TCheck SCRF=Check GenChk RMP2(FC)/Aug-CC-pVTZ F
 req
 ----------------------------------------------------------------------

 Structure from the checkpoint file:  "hclo4_mp2_avtz_opt_anharm.chk"
 -----
 HClO4
 -----
 Charge =  0 Multiplicity = 1

                         Standard orientation:
 ---------------------------------------------------------------------
 Center     Atomic      Atomic             Coordinates (Angstroms)
 Number     Number       Type             X           Y           Z
 ---------------------------------------------------------------------
      1         17           0        0.145656   -0.006645   -0.000003
      2          8           0        0.403391   -0.742320    1.198448
      3          8           0        0.616711    1.333464   -0.001177
      4          8           0        0.403695   -0.744674   -1.196932
      5          8           0       -1.498317    0.248753   -0.000375
      6          1           0       -1.879989   -0.648824    0.000350
 ---------------------------------------------------------------------

 SCF Done:  E(RHF) =  -759.284792470     A.U. after    1 cycles
 E2 =    -0.1222076936D+01 EUMP2 =    -0.76050686940573D+03
 E2 =    -0.1222076936D+01 EUMP2 =    -0.76050686940573D+03
 SCF Done:  E(RHF) =  -759.284790136     A.U. after    8 cycles
 E2 =    -0.1222079003D+01 EUMP2 =    -0.76050686913862D+03
 E2 =    -0.1222079003D+01 EUMP2 =    -0.76050686913862D+03
 E2 =    -0.1222079007D+01 EUMP2 =    -0.76050686913382D+03
 E2 =    -0.1222079007D+01 EUMP2 =    -0.76050686913382D+03
 E2 =    -0.1222061307D+01 EUMP2 =    -0.76050686814228D+03
 E2 =    -0.1222061307D+01 EUMP2 =    -0.76050686814228D+03
 E2 =    -0.1222093286D+01 EUMP2 =    -0.76050686849017D+03
 E2 =    -0.1222093286D+01 EUMP2 =    -0.76050686849017D+03
 E2 =    -0.1222077589D+01 EUMP2 =    -0.76050686829118D+03
 E2 =    -0.1222077589D+01 EUMP2 =    -0.76050686829118D+03
 SCF Done:  E(RHF) =  -759.284463295     A.U. after    8 cycles
 E2 =    -0.1222398206D+01 EUMP2 =    -0.76050686150144D+03
 E2 =    -0.1222398206D+01 EUMP2 =    -0.76050686150144D+03
 SCF Done:  E(RHF) =  -759.285108610     A.U. after    8 cycles
 E2 =    -0.1221752636D+01 EUMP2 =    -0.76050686124635D+03
 E2 =    -0.1221752636D+01 EUMP2 =    -0.76050686124635D+03
 SCF Done:  E(RHF) =  -759.284720793     A.U. after    9 cycles
 E2 =    -0.1222138635D+01 EUMP2 =    -0.76050685942793D+03
 E2 =    -0.1222138635D+01 EUMP2 =    -0.76050685942793D+03
 SCF Done:  E(RHF) =  -759.284837297     A.U. after    9 cycles
 E2 =    -0.1222022335D+01 EUMP2 =    -0.76050685963218D+03
 E2 =    -0.1222022335D+01 EUMP2 =    -0.76050685963218D+03
 SCF Done:  E(RHF) =  -759.284783087     A.U. after    8 cycles
 E2 =    -0.1222074704D+01 EUMP2 =    -0.76050685779059D+03
 E2 =    -0.1222074704D+01 EUMP2 =    -0.76050685779059D+03
 SCF Done:  E(RHF) =  -759.284783198     A.U. after    8 cycles
 E2 =    -0.1222074765D+01 EUMP2 =    -0.76050685796345D+03
 E2 =    -0.1222074765D+01 EUMP2 =    -0.76050685796345D+03
 SCF Done:  E(RHF) =  -759.284715822     A.U. after    9 cycles
 E2 =    -0.1222140774D+01 EUMP2 =    -0.76050685659568D+03
 E2 =    -0.1222140774D+01 EUMP2 =    -0.76050685659568D+03
 SCF Done:  E(RHF) =  -759.284846476     A.U. after    9 cycles
 E2 =    -0.1222010769D+01 EUMP2 =    -0.76050685724505D+03
 E2 =    -0.1222010769D+01 EUMP2 =    -0.76050685724505D+03
 SCF Done:  E(RHF) =  -759.284255992     A.U. after    8 cycles
 E2 =    -0.1222523342D+01 EUMP2 =    -0.76050677933465D+03
 E2 =    -0.1222523342D+01 EUMP2 =    -0.76050677933465D+03
 SCF Done:  E(RHF) =  -759.285142181     A.U. after    8 cycles
 E2 =    -0.1221632314D+01 EUMP2 =    -0.76050677449444D+03
 E2 =    -0.1221632314D+01 EUMP2 =    -0.76050677449444D+03

 Alpha  occ. eigenvalues -- -105.31156 -20.69572 -20.64858 -20.64854 -20.64718
 Alpha  occ. eigenvalues --  -10.97597  -8.44748  -8.44621  -8.44615  -1.71479
 Alpha  occ. eigenvalues --   -1.46971  -1.46490  -1.45802  -0.99114  -0.86533
 Alpha  occ. eigenvalues --   -0.80652  -0.80190  -0.72918  -0.65296  -0.62282
 Alpha  occ. eigenvalues --   -0.61513  -0.58008  -0.56338  -0.55046  -0.52751
 Alpha virt. eigenvalues --    0.02244   0.08170   0.08628   0.08799   0.10462
 Alpha virt. eigenvalues --    0.12269   0.13375   0.16169   0.16216   0.16358
 Alpha virt. eigenvalues --    0.16559   0.21206   0.21861   0.22459   0.22900

 Mulliken charges:
               1
     1  Cl   2.282901
     2  O   -0.697304
     3  O   -0.659440
     4  O   -0.697288
     5  O   -0.445981
     6  H    0.217112
 Sum of Mulliken charges =  -0.00000

 Dipole moment (field-independent basis, Debye):
    X=             -1.7867    Y=             -1.1795    Z=              0.0005  Tot=              2.1409
 Quadrupole moment (field-independent basis, Debye-Ang):
   XX=            -31.4970   YY=            -35.9921   ZZ=            -37.3095
   XY=              2.9164   XZ=             -0.0020   YZ=             -0.0007

  Exact polarizability:  37.116   0.592  36.728  -0.001  -0.000  35.874
 Approx polarizability:  31.197   0.283  32.973  -0.001  -0.000  31.432

                      1                      2                      3
                      A                      A                      A
 Frequencies --    201.8716               401.2716               411.1705
 Red. masses --      1.1226                 8.4316                 8.8129
 Frc consts  --      0.0270                 0.7999                 0.8778
 IR Inten    --     78.3769                 4.3047                13.3275

                      4                      5                      6
                      A                      A                      A
 Frequencies --    546.1021               561.5131               567.0888
 Red. masses --     10.3517                14.2465                17.7782
 Frc consts  --      1.8189                 2.6465                 3.3685
 IR Inten    --      5.5916                16.5766                23.3608

                      7                      8                      9
                      A                      A                      A
 Frequencies --    701.7968              1090.0700              1208.7750
 Red. masses --     20.0900                15.2393                 1.3273
 Frc consts  --      5.8298                10.6690                 1.1426
 IR Inten    --    217.6313                64.8957                89.6536

                     10                     11                     12
                      A                      A                      A
 Frequencies --   1304.2417              1359.3162              3698.9929
 Red. masses --     20.5577                 6.0140                 1.0659
 Frc consts  --     20.6035                 6.5472                 8.5924
 IR Inten    --    281.1047               249.6362               123.3193

 - Thermochemistry -
 -------------------
 Temperature   298.150 Kelvin.  Pressure   1.00000 Atm.
 Atom     1 has atomic number 17 and mass  34.96885

 Molecular mass:    99.95634 amu.
 Principal axes and moments of inertia in atomic units:
                           1         2         3
     Eigenvalues --   332.37535 348.90109 353.53681
           X            0.96147   0.27491  -0.00018
           Y           -0.27491   0.96147  -0.00027
           Z            0.00010   0.00031   1.00000
 This molecule is an asymmetric top.
 Rotational symmetry number  1.
 Rotational temperatures (Kelvin)      0.26059     0.24825     0.24499
 Rotational constants (GHZ):           5.42983     5.17264     5.10482
 Zero-point vibrational energy      72088.2 (Joules/Mol)
                                   17.22950 (Kcal/Mol)
 Warning -- explicit consideration of   6 degrees of freedom as
           vibrations may cause significant error
 Vibrational temperatures:    290.45   577.34   591.58   785.72   807.89
          (Kelvin)            815.91  1009.73  1568.37  1739.16  1876.51
                             1955.75  5322.03

 Zero-point correction=                           0.027457 (Hartree/Particle)
 Thermal correction to Energy=                    0.032182
 Thermal correction to Enthalpy=                  0.033126
 Thermal correction to Gibbs Free Energy=        -0.000596
 Sum of electronic and zero-point Energies=           -760.479412
 Sum of electronic and thermal Energies=              -760.474688
 Sum of electronic and thermal Enthalpies=            -760.473744
 Sum of electronic and thermal Free Energies=         -760.507465

                     E (Thermal)             CV                S
                      KCal/Mol        Cal/Mol-Kelvin    Cal/Mol-Kelvin
 Total                   20.194             15.658             70.973
 Electronic               0.000              0.000              0.000
 Translational            0.889              2.981             39.717
 Rotational               0.889              2.981             25.220
 Vibrational             18.417              9.697              6.036
 Vibration     1          0.639              1.837              2.116
 Vibration     2          0.767              1.467              0.958
 Vibration     3          0.775              1.446              0.922
 Vibration     4          0.901              1.148              0.552
 Vibration     5          0.917              1.115              0.521
 Vibration     6          0.923              1.102              0.510

 ## DEPERTURBED TRANSITIONS MOMENTS ##

 Electric dipole : Fundamental Bands
 ------------------------------------------------------------------------

 ## AFTER VARIATIONAL CORRECTION

 Electric dipole : Fundamental Bands
 ------------------------------------------------------------------------

 Optimization completed.
    -- Stationary point found.

 1\1\GINC-N2286\Freq\RMP2-FC\Aug-CC-pVTZ\Cl1H1O4\GDS001\24-Jun-2021\0\\
 #N Geom=AllCheck Guess=TCheck SCRF=Check GenChk RMP2(FC)/Aug-CC-pVTZ F
 req\\HClO4\\0,1\Cl,0.181606682,0.0477210673,0.0275907244\O,0.064957717
 2,1.4725129626,0.0105256275\O,0.5976381398,-0.5406075572,-1.1965720376
 \O,0.8213308652,-0.4649113825,1.1988598452\O,-1.3836914656,-0.50893930
 1,0.1161621153\H,-1.7250895027,-0.1318996107,0.9483926699\\Version=ES6
 4L-G16RevA.03\State=1-A\HF=-759.2847925\MP2=-760.5068694\RMSD=1.564e-0
 9\RMSF=5.332e-05\ZeroPoint=0.027457\Thermal=0.0321815\Dipole=-0.661057

 Normal termination of Gaussian 16 at Thu Jun 24 22:35:09 2021.
