 Gaussian 16, Revision C.01,
 Gaussian 16:  EM64L-G16RevC.01  3-Jul-2019

 ----------------------------------------------
 # MP2/aug-cc-pVDZ opt freq=(vibrot,anharmonic)
 ----------------------------------------------

 ----
 blah
 ----
 Symbolic Z-matrix:
 Charge =  0 Multiplicity = 1

 SCF Done:  E(RHF) =  -207.990647220     A.U. after   13 cycles
 E2 =    -0.6603630379D+00 EUMP2 =    -0.20865101025795D+03
 SCF Done:  E(RHF) =  -207.992030831     A.U. after   12 cycles
 E2 =    -0.6602667780D+00 EUMP2 =    -0.20865229760874D+03
 SCF Done:  E(RHF) =  -207.992013176     A.U. after   10 cycles
 E2 =    -0.6603667703D+00 EUMP2 =    -0.20865237994605D+03
 SCF Done:  E(RHF) =  -207.991907146     A.U. after   11 cycles
 E2 =    -0.6604465440D+00 EUMP2 =    -0.20865235368986D+03
 SCF Done:  E(RHF) =  -207.991954779     A.U. after   10 cycles
 E2 =    -0.6604334054D+00 EUMP2 =    -0.20865238818415D+03
 SCF Done:  E(RHF) =  -207.991962318     A.U. after    9 cycles
 E2 =    -0.6604263591D+00 EUMP2 =    -0.20865238867697D+03
 Optimization completed.
    -- Stationary point found.
 Normal termination of Gaussian 16 at Thu Apr  3 10:48:26 2025.

 ----------------------------------------------------------------------
 #N Geom=AllCheck Guess=TCheck SCRF=Check GenChk RMP2(FC)/Aug-CC-pVDZ F
 req
 ----------------------------------------------------------------------

 Structure from the checkpoint file:  "/scr/Gau-19312.chk"
 ----
 blah
 ----
 Charge =  0 Multiplicity = 1

                         Standard orientation:
 ---------------------------------------------------------------------
 Center     Atomic      Atomic             Coordinates (Angstroms)
 Number     Number       Type             X           Y           Z
 ---------------------------------------------------------------------
      1          6           0       -0.866211    0.443975   -0.000017
      2          8           0       -1.378485   -0.677622    0.000023
      3          7           0        0.479093    0.664477    0.000109
      4          1           0       -1.460739    1.381863   -0.000240
      5          1           0        0.811920    1.619533    0.000241
      6          6           0        1.421402   -0.449155   -0.000028
      7          1           0        1.279268   -1.074034    0.894118
      8          1           0        2.442341   -0.046391   -0.006540
      9          1           0        1.270292   -1.080250   -0.888257
 ---------------------------------------------------------------------

 SCF Done:  E(RHF) =  -207.991962318     A.U. after    1 cycles
 E2 =    -0.6604263596D+00 EUMP2 =    -0.20865238867741D+03
 E2 =    -0.6604263596D+00 EUMP2 =    -0.20865238867741D+03
 SCF Done:  E(RHF) =  -207.991961555     A.U. after    8 cycles
 E2 =    -0.6604271244D+00 EUMP2 =    -0.20865238867983D+03
 E2 =    -0.6604271244D+00 EUMP2 =    -0.20865238867983D+03
 SCF Done:  E(RHF) =  -207.991961584     A.U. after    8 cycles
 E2 =    -0.6604270830D+00 EUMP2 =    -0.20865238866674D+03
 E2 =    -0.6604270830D+00 EUMP2 =    -0.20865238866674D+03
 SCF Done:  E(RHF) =  -207.991961422     A.U. after    9 cycles
 E2 =    -0.6604271591D+00 EUMP2 =    -0.20865238858155D+03
 E2 =    -0.6604271591D+00 EUMP2 =    -0.20865238858155D+03
 E2 =    -0.6604272799D+00 EUMP2 =    -0.20865238821485D+03
 E2 =    -0.6604272799D+00 EUMP2 =    -0.20865238821485D+03
 E2 =    -0.6604187592D+00 EUMP2 =    -0.20865238821334D+03
 E2 =    -0.6604187592D+00 EUMP2 =    -0.20865238821334D+03
 E2 =    -0.6604345008D+00 EUMP2 =    -0.20865238820432D+03
 E2 =    -0.6604345008D+00 EUMP2 =    -0.20865238820432D+03
 SCF Done:  E(RHF) =  -207.991753450     A.U. after   10 cycles
 E2 =    -0.6605741985D+00 EUMP2 =    -0.20865232764856D+03
 E2 =    -0.6605741985D+00 EUMP2 =    -0.20865232764856D+03
 SCF Done:  E(RHF) =  -207.992044490     A.U. after   10 cycles
 E2 =    -0.6602810045D+00 EUMP2 =    -0.20865232549450D+03
 E2 =    -0.6602810045D+00 EUMP2 =    -0.20865232549450D+03
 SCF Done:  E(RHF) =  -207.991627863     A.U. after   10 cycles
 E2 =    -0.6606972173D+00 EUMP2 =    -0.20865232508054D+03
 E2 =    -0.6606972173D+00 EUMP2 =    -0.20865232508054D+03
 SCF Done:  E(RHF) =  -207.992167558     A.U. after   10 cycles
 E2 =    -0.6601565028D+00 EUMP2 =    -0.20865232406070D+03
 E2 =    -0.6601565028D+00 EUMP2 =    -0.20865232406070D+03
 SCF Done:  E(RHF) =  -207.991896518     A.U. after    9 cycles
 E2 =    -0.6604246083D+00 EUMP2 =    -0.20865232112679D+03
 E2 =    -0.6604246083D+00 EUMP2 =    -0.20865232112679D+03
 SCF Done:  E(RHF) =  -207.991893693     A.U. after    9 cycles
 E2 =    -0.6604273692D+00 EUMP2 =    -0.20865232106234D+03
 E2 =    -0.6604273692D+00 EUMP2 =    -0.20865232106234D+03
 SCF Done:  E(RHF) =  -207.991880419     A.U. after    9 cycles
 E2 =    -0.6604401435D+00 EUMP2 =    -0.20865232056274D+03
 E2 =    -0.6604401435D+00 EUMP2 =    -0.20865232056274D+03
 SCF Done:  E(RHF) =  -207.991907332     A.U. after    9 cycles
 E2 =    -0.6604112579D+00 EUMP2 =    -0.20865231858989D+03
 E2 =    -0.6604112579D+00 EUMP2 =    -0.20865231858989D+03
 SCF Done:  E(RHF) =  -207.991562043     A.U. after   10 cycles
 E2 =    -0.6607376141D+00 EUMP2 =    -0.20865229965691D+03
 E2 =    -0.6607376141D+00 EUMP2 =    -0.20865229965691D+03
 SCF Done:  E(RHF) =  -207.992179057     A.U. after   10 cycles
 E2 =    -0.6601165781D+00 EUMP2 =    -0.20865229563552D+03
 E2 =    -0.6601165781D+00 EUMP2 =    -0.20865229563552D+03

 Alpha  occ. eigenvalues --  -20.53664 -15.60376 -11.36276 -11.27762  -1.37691
 Alpha  occ. eigenvalues --   -1.23590  -0.96590  -0.81304  -0.74214  -0.64122
 Alpha  occ. eigenvalues --   -0.62349  -0.59180  -0.55769  -0.52604  -0.43169
 Alpha  occ. eigenvalues --   -0.39656
 Alpha virt. eigenvalues --    0.02654   0.04275   0.05348   0.06435   0.06973
 Alpha virt. eigenvalues --    0.10308   0.10535   0.12306   0.14113   0.15537
 Alpha virt. eigenvalues --    0.16073   0.17000   0.18324   0.18412   0.19491

 Mulliken charges:
               1
     1  C    0.660180
     2  O   -0.520795
     3  N   -0.177530
     4  H   -0.155054
     5  H   -0.137315
     6  C    0.676816
     7  H   -0.078303
     8  H   -0.189084
     9  H   -0.078916
 Sum of Mulliken charges =  -0.00000

 Dipole moment (field-independent basis, Debye):
    X=              2.9635    Y=              2.6542    Z=             -0.0006  Tot=              3.9783
 Quadrupole moment (field-independent basis, Debye-Ang):
   XX=            -26.0221   YY=            -23.3167   ZZ=            -25.7472
   XY=             -2.7453   XZ=             -0.0012   YZ=              0.0017

  Exact polarizability:      47.855       1.530      41.965       0.005      -0.005      30.203
 Approx polarizability:      33.944       2.647      35.092       0.004      -0.002      27.224

                      1                      2                      3
                      A                      A                      A
 Frequencies --     20.6504               200.9025               262.9653
 Red. masses --      1.0653                 1.9841                 3.8183
 Frc consts  --      0.0003                 0.0472                 0.1556
 IR Inten    --     13.2396                77.5149                10.5598

                      4                      5                      6
                      A                      A                      A
 Frequencies --    469.5148               759.9675               978.3785
 Red. masses --      1.3007                 3.6327                 3.2744
 Frc consts  --      0.1689                 1.2361                 1.8467
 IR Inten    --     13.5240                 5.2018                17.4841

                      7                      8                      9
                      A                      A                      A
 Frequencies --   1010.5283              1156.2077              1161.3173
 Red. masses --      1.6058                 1.2786                 1.4649
 Frc consts  --      0.9661                 1.0071                 1.1640
 IR Inten    --      0.8596                 0.0484                 2.7541

                     10                     11                     12
                      A                      A                      A
 Frequencies --   1237.3136              1399.6682              1441.9494
 Red. masses --      1.9762                 1.2262                 1.1913
 Frc consts  --      1.7825                 1.4154                 1.4593
 IR Inten    --     42.0343                 3.9598                14.5776

                     13                     14                     15
                      A                      A                      A
 Frequencies --   1471.8533              1500.2292              1540.7038
 Red. masses --      1.0377                 1.1783                 1.6953
 Frc consts  --      1.3245                 1.5624                 2.3710
 IR Inten    --      8.7230                10.2378               120.7712

                     16                     17                     18
                      A                      A                      A
 Frequencies --   1736.8484              3031.2633              3079.9941
 Red. masses --      7.4260                 1.0874                 1.0333
 Frc consts  --     13.1986                 5.8866                 5.7754
 IR Inten    --    351.6640                90.4779                27.9511

                     19                     20                     21
                      A                      A                      A
 Frequencies --   3162.2613              3197.5875              3669.7898
 Red. masses --      1.1048                 1.1040                 1.0797
 Frc consts  --      6.5094                 6.6509                 8.5669
 IR Inten    --     14.5985                11.4948                42.4687

 - Thermochemistry -
 -------------------
 Temperature   298.150 Kelvin.  Pressure   1.00000 Atm.
 Atom     1 has atomic number  6 and mass  12.00000

 Molecular mass:    59.03711 amu.
 Principal axes and moments of inertia in atomic units:
                           1         2         3
     Eigenvalues --    94.94611 287.36773 370.87986
           X            0.99791  -0.06461   0.00000
           Y            0.06461   0.99791  -0.00002
           Z            0.00000   0.00002   1.00000
 This molecule is an asymmetric top.
 Rotational symmetry number  1.
 Rotational temperatures (Kelvin)      0.91224     0.30140     0.23354
 Rotational constants (GHZ):          19.00806     6.28025     4.86611
 Zero-point vibrational energy     194332.7 (Joules/Mol)
                                   46.44664 (Kcal/Mol)
 Warning -- explicit consideration of   4 degrees of freedom as
           vibrations may cause significant error
 Vibrational temperatures:     29.71   289.05   378.35   675.53  1093.42
          (Kelvin)           1407.67  1453.92  1663.52  1670.88  1780.22
                             2013.81  2074.64  2117.67  2158.50  2216.73
                             2498.94  4361.31  4431.42  4549.79  4600.62
                             5280.01

 Zero-point correction=                           0.074017 (Hartree/Particle)
 Thermal correction to Energy=                    0.079274
 Thermal correction to Enthalpy=                  0.080218
 Thermal correction to Gibbs Free Energy=         0.045204
 Sum of electronic and zero-point Energies=           -208.578371
 Sum of electronic and thermal Energies=              -208.573115
 Sum of electronic and thermal Enthalpies=            -208.572171
 Sum of electronic and thermal Free Energies=         -208.607185

                     E (Thermal)             CV                S
                      KCal/Mol        Cal/Mol-Kelvin    Cal/Mol-Kelvin
 Total                   49.745             15.432             73.693
 Electronic               0.000              0.000              0.000
 Translational            0.889              2.981             38.147
 Rotational               0.889              2.981             23.830
 Vibrational             47.968              9.470             11.716
 Vibration     1          0.593              1.986              6.571
 Vibration     2          0.638              1.839              2.125
 Vibration     3          0.670              1.741              1.642
 Vibration     4          0.827              1.318              0.739

 ## DEPERTURBED TRANSITIONS MOMENTS ##

 Electric dipole : Fundamental Bands
 ------------------------------------------------------------------------

 ## AFTER VARIATIONAL CORRECTION

 Electric dipole : Fundamental Bands
 ------------------------------------------------------------------------

                           ! Non-Optimized Parameters !
 Normal termination of Gaussian 16 at Thu Apr  3 11:33:45 2025.
