 Gaussian 16, Revision C.01,
 Gaussian 16:  EM64L-G16RevC.01  3-Jul-2019

 ----------------------------------------------
 # MP2/aug-cc-pVDZ opt freq=(vibrot,anharmonic)
 ----------------------------------------------

 ----
 blah
 ----
 Symbolic Z-matrix:
 Charge =  0 Multiplicity = 1

 SCF Done:  E(RHF) =  -207.988347582     A.U. after   13 cycles
 E2 =    -0.6572950834D+00 EUMP2 =    -0.20864564266510D+03
 SCF Done:  E(RHF) =  -207.988599425     A.U. after   11 cycles
 E2 =    -0.6595162562D+00 EUMP2 =    -0.20864811568084D+03
 SCF Done:  E(RHF) =  -207.988712759     A.U. after    9 cycles
 E2 =    -0.6594923047D+00 EUMP2 =    -0.20864820506400D+03
 SCF Done:  E(RHF) =  -207.988761540     A.U. after    9 cycles
 E2 =    -0.6594515797D+00 EUMP2 =    -0.20864821311951D+03
 SCF Done:  E(RHF) =  -207.988770948     A.U. after    9 cycles
 E2 =    -0.6594413668D+00 EUMP2 =    -0.20864821231480D+03
 SCF Done:  E(RHF) =  -207.988773985     A.U. after    9 cycles
 E2 =    -0.6594393860D+00 EUMP2 =    -0.20864821337088D+03
 Optimization completed.
    -- Stationary point found.
 Normal termination of Gaussian 16 at Sun Mar 30 02:38:28 2025.

 ----------------------------------------------------------------------
 #N Geom=AllCheck Guess=TCheck SCRF=Check GenChk RMP2(FC)/Aug-CC-pVDZ F
 req
 ----------------------------------------------------------------------

 Structure from the checkpoint file:  "/scr/Gau-17184.chk"
 ----
 blah
 ----
 Charge =  0 Multiplicity = 1

                         Standard orientation:
 ---------------------------------------------------------------------
 Center     Atomic      Atomic             Coordinates (Angstroms)
 Number     Number       Type             X           Y           Z
 ---------------------------------------------------------------------
      1          6           0       -0.727648    0.348237    0.000130
      2          8           0       -1.879886   -0.086477   -0.000076
      3          7           0        0.399318   -0.421870    0.000048
      4          1           0       -0.498023    1.437041   -0.000081
      5          1           0        0.255193   -1.425688    0.000010
      6          6           0        1.751471    0.128501   -0.000041
      7          1           0        1.939086    0.739069   -0.896800
      8          1           0        2.465461   -0.704992   -0.000095
      9          1           0        1.939200    0.739052    0.896705
 ---------------------------------------------------------------------

 SCF Done:  E(RHF) =  -207.988773985     A.U. after    1 cycles
 E2 =    -0.6594393826D+00 EUMP2 =    -0.20864821336750D+03
 E2 =    -0.6594393826D+00 EUMP2 =    -0.20864821336750D+03
 ******    1 imaginary frequencies (negative Signs) ******
    1 imaginary frequencies ignored.
 SCF Done:  E(RHF) =  -207.988773427     A.U. after    8 cycles
 E2 =    -0.6594401534D+00 EUMP2 =    -0.20864821358044D+03
 E2 =    -0.6594401534D+00 EUMP2 =    -0.20864821358044D+03
 SCF Done:  E(RHF) =  -207.988773408     A.U. after    8 cycles
 E2 =    -0.6594401698D+00 EUMP2 =    -0.20864821357825D+03
 E2 =    -0.6594401698D+00 EUMP2 =    -0.20864821357825D+03
 SCF Done:  E(RHF) =  -207.988773485     A.U. after    7 cycles
 E2 =    -0.6594397981D+00 EUMP2 =    -0.20864821328269D+03
 E2 =    -0.6594397981D+00 EUMP2 =    -0.20864821328269D+03
 E2 =    -0.6594397901D+00 EUMP2 =    -0.20864821326378D+03
 E2 =    -0.6594397901D+00 EUMP2 =    -0.20864821326378D+03
 E2 =    -0.6594397969D+00 EUMP2 =    -0.20864821231791D+03
 E2 =    -0.6594397969D+00 EUMP2 =    -0.20864821231791D+03
 E2 =    -0.6594397702D+00 EUMP2 =    -0.20864821306889D+03
 E2 =    -0.6594397702D+00 EUMP2 =    -0.20864821306889D+03
 SCF Done:  E(RHF) =  -207.988861554     A.U. after   10 cycles
 E2 =    -0.6592894266D+00 EUMP2 =    -0.20864815098090D+03
 E2 =    -0.6592894266D+00 EUMP2 =    -0.20864815098090D+03
 SCF Done:  E(RHF) =  -207.988561655     A.U. after   10 cycles
 E2 =    -0.6595918275D+00 EUMP2 =    -0.20864815348253D+03
 E2 =    -0.6595918275D+00 EUMP2 =    -0.20864815348253D+03
 SCF Done:  E(RHF) =  -207.988453623     A.U. after   10 cycles
 E2 =    -0.6596967473D+00 EUMP2 =    -0.20864815037032D+03
 E2 =    -0.6596967473D+00 EUMP2 =    -0.20864815037032D+03
 SCF Done:  E(RHF) =  -207.988965957     A.U. after   10 cycles
 E2 =    -0.6591829385D+00 EUMP2 =    -0.20864814889525D+03
 E2 =    -0.6591829385D+00 EUMP2 =    -0.20864814889525D+03
 SCF Done:  E(RHF) =  -207.988707459     A.U. after    8 cycles
 E2 =    -0.6594388556D+00 EUMP2 =    -0.20864814631488D+03
 E2 =    -0.6594388556D+00 EUMP2 =    -0.20864814631488D+03
 SCF Done:  E(RHF) =  -207.988707488     A.U. after    8 cycles
 E2 =    -0.6594388509D+00 EUMP2 =    -0.20864814633903D+03
 E2 =    -0.6594388509D+00 EUMP2 =    -0.20864814633903D+03
 SCF Done:  E(RHF) =  -207.988656882     A.U. after    9 cycles
 E2 =    -0.6594882873D+00 EUMP2 =    -0.20864814516905D+03
 E2 =    -0.6594882873D+00 EUMP2 =    -0.20864814516905D+03
 SCF Done:  E(RHF) =  -207.988754502     A.U. after    9 cycles
 E2 =    -0.6593893681D+00 EUMP2 =    -0.20864814387014D+03
 E2 =    -0.6593893681D+00 EUMP2 =    -0.20864814387014D+03
 SCF Done:  E(RHF) =  -207.988376579     A.U. after   10 cycles
 E2 =    -0.6597497299D+00 EUMP2 =    -0.20864812630842D+03
 E2 =    -0.6597497299D+00 EUMP2 =    -0.20864812630842D+03
 SCF Done:  E(RHF) =  -207.988991087     A.U. after   10 cycles
 E2 =    -0.6591306207D+00 EUMP2 =    -0.20864812170734D+03
 E2 =    -0.6591306207D+00 EUMP2 =    -0.20864812170734D+03

 Alpha  occ. eigenvalues --  -20.53665 -15.60149 -11.36420 -11.29336  -1.37591
 Alpha  occ. eigenvalues --   -1.23862  -0.96507  -0.84671  -0.68621  -0.67698
 Alpha  occ. eigenvalues --   -0.63192  -0.59173  -0.57037  -0.53714  -0.43031
 Alpha  occ. eigenvalues --   -0.39509
 Alpha virt. eigenvalues --    0.02752   0.04177   0.05165   0.05506   0.07250
 Alpha virt. eigenvalues --    0.10678   0.11227   0.11895   0.13649   0.14796
 Alpha virt. eigenvalues --    0.15720   0.15869   0.16873   0.18441   0.18945

 Mulliken charges:
               1
     1  C    0.719812
     2  O   -0.519072
     3  N   -0.199802
     4  H   -0.178146
     5  H   -0.161806
     6  C    0.688482
     7  H   -0.077371
     8  H   -0.194734
     9  H   -0.077363
 Sum of Mulliken charges =  -0.00000

 Dipole moment (field-independent basis, Debye):
    X=              4.3023    Y=              0.1306    Z=              0.0001  Tot=              4.3043
 Quadrupole moment (field-independent basis, Debye-Ang):
   XX=            -30.4062   YY=            -22.2041   ZZ=            -25.6500
   XY=             -1.2636   XZ=             -0.0005   YZ=              0.0000

  Exact polarizability:      54.149       0.622      37.415       0.000      -0.000      29.806
 Approx polarizability:      37.640       1.052      31.356       0.001       0.000      26.923

 ******    1 imaginary frequencies (negative Signs) ******

                      1                      2                      3
                      A                      A                      A
 Frequencies --   -176.5101               124.9412               316.1758
 Red. masses --      1.1647                 2.9051                 3.0973
 Frc consts  --      0.0214                 0.0267                 0.1824
 IR Inten    --      1.5560                 3.6853                 7.0132

                      4                      5                      6
                      A                      A                      A
 Frequencies --    529.9922               600.9481              1016.4669
 Red. masses --      1.3758                 5.2944                 1.7197
 Frc consts  --      0.2277                 1.1265                 1.0468
 IR Inten    --     98.9724                10.3169                21.9883

                      7                      8                      9
                      A                      A                      A
 Frequencies --   1028.0810              1153.9898              1192.2378
 Red. masses --      1.5395                 1.2654                 2.3262
 Frc consts  --      0.9587                 0.9928                 1.9481
 IR Inten    --      2.4507                 0.4048                 8.3026

                     10                     11                     12
                      A                      A                      A
 Frequencies --   1301.7183              1380.5674              1454.0056
 Red. masses --      2.2283                 1.1783                 1.2272
 Frc consts  --      2.2246                 1.3232                 1.5286
 IR Inten    --    139.6316                21.1211                 2.2612

                     13                     14                     15
                      A                      A                      A
 Frequencies --   1464.9371              1484.9245              1520.8393
 Red. masses --      1.7289                 1.0378                 1.0989
 Frc consts  --      2.1861                 1.3482                 1.4975
 IR Inten    --      2.8475                 6.9118                28.7596

                     16                     17                     18
                      A                      A                      A
 Frequencies --   1755.4738              3007.5607              3071.0944
 Red. masses --      6.5776                 1.0852                 1.0355
 Frc consts  --     11.9429                 5.7837                 5.7543
 IR Inten    --    484.6646                64.8888                53.0658

                     19                     20                     21
                      A                      A                      A
 Frequencies --   3149.6000              3191.7408              3635.9920
 Red. masses --      1.1057                 1.1011                 1.0777
 Frc consts  --      6.4623                 6.6092                 8.3942
 IR Inten    --     20.1594                10.1568                41.3661

 - Thermochemistry -
 -------------------
 Temperature   298.150 Kelvin.  Pressure   1.00000 Atm.
 Atom     1 has atomic number  6 and mass  12.00000

 Molecular mass:    59.03711 amu.
 Principal axes and moments of inertia in atomic units:
                           1         2         3
     Eigenvalues --    41.45029 417.62742 447.50092
           X            1.00000   0.00123  -0.00000
           Y           -0.00123   1.00000  -0.00002
           Z            0.00000   0.00002   1.00000
 This molecule is an asymmetric top.
 Rotational symmetry number  1.
 Rotational temperatures (Kelvin)      2.08959     0.20740     0.19355
 Rotational constants (GHZ):          43.53989     4.32141     4.03293
    1 imaginary frequencies ignored.
 Zero-point vibrational energy     193683.1 (Joules/Mol)
                                   46.29137 (Kcal/Mol)
 Warning -- explicit consideration of   4 degrees of freedom as
           vibrations may cause significant error
 Vibrational temperatures:    179.76   454.91   762.54   864.63  1462.47
          (Kelvin)           1479.18  1660.33  1715.36  1872.88  1986.33
                             2091.99  2107.72  2136.48  2188.15  2525.74
                             4327.21  4418.62  4531.57  4592.20  5231.38

 Zero-point correction=                           0.073770 (Hartree/Particle)
 Thermal correction to Energy=                    0.078200
 Thermal correction to Enthalpy=                  0.079145
 Thermal correction to Gibbs Free Energy=         0.047090
 Sum of electronic and zero-point Energies=           -208.574443
 Sum of electronic and thermal Energies=              -208.570013
 Sum of electronic and thermal Enthalpies=            -208.569069
 Sum of electronic and thermal Free Energies=         -208.601123

                     E (Thermal)             CV                S
                      KCal/Mol        Cal/Mol-Kelvin    Cal/Mol-Kelvin
 Total                   49.071             13.512             67.464
 Electronic               0.000              0.000              0.000
 Translational            0.889              2.981             38.147
 Rotational               0.889              2.981             23.564
 Vibrational             47.294              7.550              5.753
 Vibration     1          0.610              1.928              3.022
 Vibration     2          0.703              1.643              1.330
 Vibration     3          0.885              1.184              0.587
 Vibration     4          0.959              1.030              0.448

 Optimization completed.
    -- Stationary point found.
 Normal termination of Gaussian 16 at Sun Mar 30 03:24:09 2025.
