 Gaussian 16, Revision C.01,
 Gaussian 16:  EM64L-G16RevC.01  3-Jul-2019

 ----------------------------------------------
 # MP2/aug-cc-pVDZ opt freq=(vibrot,anharmonic)
 ----------------------------------------------

 ----
 blah
 ----
 Symbolic Z-matrix:
 Charge =  0 Multiplicity = 1

 SCF Done:  E(RHF) =  -168.958988963     A.U. after   13 cycles
 E2 =    -0.5113451517D+00 EUMP2 =    -0.16947033411461D+03
 SCF Done:  E(RHF) =  -168.960972219     A.U. after   11 cycles
 E2 =    -0.5131352206D+00 EUMP2 =    -0.16947410743967D+03
 SCF Done:  E(RHF) =  -168.961489446     A.U. after   11 cycles
 E2 =    -0.5127887047D+00 EUMP2 =    -0.16947427815077D+03
 SCF Done:  E(RHF) =  -168.961626812     A.U. after   10 cycles
 E2 =    -0.5126629056D+00 EUMP2 =    -0.16947428971737D+03
 Optimization completed.
    -- Stationary point found.
 Normal termination of Gaussian 16 at Sun Mar 30 00:32:12 2025.

 ----------------------------------------------------------------------
 #N Geom=AllCheck Guess=TCheck SCRF=Check GenChk RMP2(FC)/Aug-CC-pVDZ F
 req
 ----------------------------------------------------------------------

 Structure from the checkpoint file:  "/scr/Gau-8600.chk"
 ----
 blah
 ----
 Charge =  0 Multiplicity = 1

                         Standard orientation:
 ---------------------------------------------------------------------
 Center     Atomic      Atomic             Coordinates (Angstroms)
 Number     Number       Type             X           Y           Z
 ---------------------------------------------------------------------
      1          6           0        0.000000    0.424992    0.000000
      2          8           0       -1.211610    0.220524   -0.000000
      3          7           0        0.951265   -0.557268    0.000000
      4          1           0        0.438482    1.445269    0.000000
      5          1           0        1.935619   -0.331527    0.000000
      6          1           0        0.659920   -1.527003    0.000000
 ---------------------------------------------------------------------

 SCF Done:  E(RHF) =  -168.961626812     A.U. after    1 cycles
 E2 =    -0.5126629058D+00 EUMP2 =    -0.16947428971763D+03
 E2 =    -0.5126629058D+00 EUMP2 =    -0.16947428971763D+03
 SCF Done:  E(RHF) =  -168.961625201     A.U. after    8 cycles
 E2 =    -0.5126643103D+00 EUMP2 =    -0.16947428951088D+03
 E2 =    -0.5126643103D+00 EUMP2 =    -0.16947428951088D+03
 SCF Done:  E(RHF) =  -168.961625201     A.U. after    8 cycles
 E2 =    -0.5126643103D+00 EUMP2 =    -0.16947428951088D+03
 E2 =    -0.5126643103D+00 EUMP2 =    -0.16947428951088D+03
 SCF Done:  E(RHF) =  -168.961602336     A.U. after    8 cycles
 E2 =    -0.5126869108D+00 EUMP2 =    -0.16947428924641D+03
 E2 =    -0.5126869108D+00 EUMP2 =    -0.16947428924641D+03
 SCF Done:  E(RHF) =  -168.961645300     A.U. after    8 cycles
 E2 =    -0.5126406829D+00 EUMP2 =    -0.16947428598265D+03
 E2 =    -0.5126406829D+00 EUMP2 =    -0.16947428598265D+03
 SCF Done:  E(RHF) =  -168.961622678     A.U. after    9 cycles
 E2 =    -0.5126642986D+00 EUMP2 =    -0.16947428697695D+03
 E2 =    -0.5126642986D+00 EUMP2 =    -0.16947428697695D+03
 E2 =    -0.5126642986D+00 EUMP2 =    -0.16947428697695D+03
 E2 =    -0.5126642986D+00 EUMP2 =    -0.16947428697695D+03
 E2 =    -0.5126654068D+00 EUMP2 =    -0.16947428252021D+03
 E2 =    -0.5126654068D+00 EUMP2 =    -0.16947428252021D+03
 SCF Done:  E(RHF) =  -168.961455602     A.U. after    9 cycles
 E2 =    -0.5128162172D+00 EUMP2 =    -0.16947427181919D+03
 E2 =    -0.5128162172D+00 EUMP2 =    -0.16947427181919D+03
 SCF Done:  E(RHF) =  -168.961756059     A.U. after    9 cycles
 E2 =    -0.5125162017D+00 EUMP2 =    -0.16947427226114D+03
 E2 =    -0.5125162017D+00 EUMP2 =    -0.16947427226114D+03
 SCF Done:  E(RHF) =  -168.961325448     A.U. after   10 cycles
 E2 =    -0.5129388601D+00 EUMP2 =    -0.16947426430775D+03
 E2 =    -0.5129388601D+00 EUMP2 =    -0.16947426430775D+03
 SCF Done:  E(RHF) =  -168.961886549     A.U. after   10 cycles
 E2 =    -0.5123866184D+00 EUMP2 =    -0.16947427316763D+03
 E2 =    -0.5123866184D+00 EUMP2 =    -0.16947427316763D+03
 SCF Done:  E(RHF) =  -168.961407851     A.U. after   10 cycles
 E2 =    -0.5128204493D+00 EUMP2 =    -0.16947422830016D+03
 E2 =    -0.5128204493D+00 EUMP2 =    -0.16947422830016D+03
 SCF Done:  E(RHF) =  -168.961718942     A.U. after   10 cycles
 E2 =    -0.5125077659D+00 EUMP2 =    -0.16947422670797D+03
 E2 =    -0.5125077659D+00 EUMP2 =    -0.16947422670797D+03
 SCF Done:  E(RHF) =  -168.961942175     A.U. after   10 cycles
 E2 =    -0.5122604600D+00 EUMP2 =    -0.16947420263494D+03
 E2 =    -0.5122604600D+00 EUMP2 =    -0.16947420263494D+03
 SCF Done:  E(RHF) =  -168.961133996     A.U. after   10 cycles
 E2 =    -0.5130672820D+00 EUMP2 =    -0.16947420127809D+03
 E2 =    -0.5130672820D+00 EUMP2 =    -0.16947420127809D+03
 SCF Done:  E(RHF) =  -168.961487863     A.U. after    9 cycles
 E2 =    -0.5127068137D+00 EUMP2 =    -0.16947419467633D+03
 E2 =    -0.5127068137D+00 EUMP2 =    -0.16947419467633D+03
 SCF Done:  E(RHF) =  -168.961573854     A.U. after    9 cycles
 E2 =    -0.5126195306D+00 EUMP2 =    -0.16947419338435D+03
 E2 =    -0.5126195306D+00 EUMP2 =    -0.16947419338435D+03

 Alpha  occ. eigenvalues --  -20.54276 -15.60797 -11.37275  -1.38242  -1.22107
 Alpha  occ. eigenvalues --   -0.85325  -0.75195  -0.67343  -0.60843  -0.56788
 Alpha  occ. eigenvalues --   -0.43749  -0.42116
 Alpha virt. eigenvalues --    0.02650   0.04355   0.05867   0.09551   0.11531
 Alpha virt. eigenvalues --    0.12330   0.15546   0.15641   0.17039   0.19297
 Alpha virt. eigenvalues --    0.19742   0.23725   0.26581   0.27580   0.28409

 Mulliken charges:
               1
     1  C    0.777650
     2  O   -0.502805
     3  N   -0.067027
     4  H   -0.148242
     5  H   -0.033169
     6  H   -0.026406
 Sum of Mulliken charges =  -0.00000

 Dipole moment (field-independent basis, Debye):
    X=              3.8537    Y=             -0.5908    Z=              0.0000  Tot=              3.8988
 Quadrupole moment (field-independent basis, Debye-Ang):
   XX=            -19.0762   YY=            -15.2990   ZZ=            -19.5775
   XY=              0.0792   XZ=             -0.0000   YZ=             -0.0000

  Exact polarizability:      36.098      -2.422      28.147       0.000       0.000      20.252
 Approx polarizability:      27.385      -0.314      21.396       0.000       0.000      17.593

                      1                      2                      3
                     A"                     A'                     A"
 Frequencies --    176.3326               557.8202               636.4979
 Red. masses --      1.2291                 2.4871                 1.2072
 Frc consts  --      0.0225                 0.4560                 0.2882
 IR Inten    --    209.6607                10.5226                12.9346

                      4                      5                      6
                     A"                     A'                     A'
 Frequencies --   1031.9106              1048.1779              1275.3031
 Red. masses --      1.5258                 1.7314                 2.8481
 Frc consts  --      0.9572                 1.1208                 2.7292
 IR Inten    --      5.9543                 4.5248               109.3410

                      7                      8                      9
                     A'                     A'                     A'
 Frequencies --   1404.6368              1617.4198              1762.0222
 Red. masses --      1.1974                 1.2697                 6.5055
 Frc consts  --      1.3919                 1.9570                11.9002
 IR Inten    --      5.0917                39.4135               423.0696

                     10                     11                     12
                     A'                     A'                     A'
 Frequencies --   3033.9087              3603.5849              3762.7679
 Red. masses --      1.0871                 1.0465                 1.1053
 Frc consts  --      5.8956                 8.0070                 9.2203
 IR Inten    --     79.7676                50.2082                53.9722

 - Thermochemistry -
 -------------------
 Temperature   298.150 Kelvin.  Pressure   1.00000 Atm.
 Atom     1 has atomic number  6 and mass  12.00000

 Molecular mass:    45.02146 amu.
 Principal axes and moments of inertia in atomic units:
                           1         2         3
     Eigenvalues --    25.07989 161.38909 186.46898
           X            0.93455   0.35583   0.00000
           Y           -0.35583   0.93455   0.00000
           Z           -0.00000   0.00000   1.00000
 This molecule is an asymmetric top.
 Rotational symmetry number  1.
 Rotational temperatures (Kelvin)      3.45352     0.53668     0.46450
 Rotational constants (GHZ):          71.95968    11.18255     9.67851
 Zero-point vibrational energy     119090.5 (Joules/Mol)
                                   28.46332 (Kcal/Mol)
 Warning -- explicit consideration of   2 degrees of freedom as
           vibrations may cause significant error
 Vibrational temperatures:    253.70   802.58   915.78  1484.69  1508.09
          (Kelvin)           1834.88  2020.96  2327.11  2535.16  4365.12
                             5184.75  5413.78

 Zero-point correction=                           0.045359 (Hartree/Particle)
 Thermal correction to Energy=                    0.049204
 Thermal correction to Enthalpy=                  0.050148
 Thermal correction to Gibbs Free Energy=         0.020645
 Sum of electronic and zero-point Energies=           -169.428931
 Sum of electronic and thermal Energies=              -169.425086
 Sum of electronic and thermal Enthalpies=            -169.424142
 Sum of electronic and thermal Free Energies=         -169.453645

                     E (Thermal)             CV                S
                      KCal/Mol        Cal/Mol-Kelvin    Cal/Mol-Kelvin
 Total                   30.876             10.926             62.094
 Electronic               0.000              0.000              0.000
 Translational            0.889              2.981             37.339
 Rotational               0.889              2.981             21.250
 Vibrational             29.098              4.964              3.504
 Vibration     1          0.628              1.872              2.367
 Vibration     2          0.913              1.123              0.528

 ## DEPERTURBED TRANSITIONS MOMENTS ##

 Electric dipole : Fundamental Bands
 ------------------------------------------------------------------------

 ## AFTER VARIATIONAL CORRECTION

 Electric dipole : Fundamental Bands
 ------------------------------------------------------------------------

                           ! Non-Optimized Parameters !
 Normal termination of Gaussian 16 at Sun Mar 30 00:41:03 2025.
