 Gaussian 16, Revision C.01,
 Gaussian 16:  EM64L-G16RevC.01  3-Jul-2019

 ----------------------------------------------
 # MP2/aug-cc-pVTZ opt freq=(vibrot,anharmonic)
 ----------------------------------------------

 ----
 blah
 ----
 Symbolic Z-matrix:
 Charge =  0 Multiplicity = 1

 SCF Done:  E(RHF) =  -168.999809430     A.U. after   12 cycles
 E2 =    -0.6171797373D+00 EUMP2 =    -0.16961698916690D+03
 SCF Done:  E(RHF) =  -169.003891363     A.U. after   10 cycles
 E2 =    -0.6166963267D+00 EUMP2 =    -0.16962058768952D+03
 SCF Done:  E(RHF) =  -169.004450581     A.U. after    9 cycles
 E2 =    -0.6163049946D+00 EUMP2 =    -0.16962075557581D+03
 SCF Done:  E(RHF) =  -169.004541688     A.U. after    9 cycles
 E2 =    -0.6162275849D+00 EUMP2 =    -0.16962076927333D+03
 SCF Done:  E(RHF) =  -169.004554859     A.U. after    7 cycles
 E2 =    -0.6162149309D+00 EUMP2 =    -0.16962076978980D+03
 Optimization completed.
    -- Stationary point found.
 Normal termination of Gaussian 16 at Sun Mar 30 00:43:36 2025.

 ----------------------------------------------------------------------
 #N Geom=AllCheck Guess=TCheck SCRF=Check GenChk RMP2(FC)/Aug-CC-pVTZ F
 req
 ----------------------------------------------------------------------

 Structure from the checkpoint file:  "/scr/Gau-64527.chk"
 ----
 blah
 ----
 Charge =  0 Multiplicity = 1

                         Standard orientation:
 ---------------------------------------------------------------------
 Center     Atomic      Atomic             Coordinates (Angstroms)
 Number     Number       Type             X           Y           Z
 ---------------------------------------------------------------------
      1          6           0        0.000000    0.420882    0.000000
      2          8           0       -1.201558    0.223629   -0.000000
      3          7           0        0.942949   -0.556126    0.000000
      4          1           0        0.438090    1.429779    0.000000
      5          1           0        1.920465   -0.332133    0.000000
      6          1           0        0.653268   -1.519089    0.000000
 ---------------------------------------------------------------------

 SCF Done:  E(RHF) =  -169.004554859     A.U. after    1 cycles
 E2 =    -0.6162149246D+00 EUMP2 =    -0.16962076978352D+03
 E2 =    -0.6162149246D+00 EUMP2 =    -0.16962076978352D+03
 SCF Done:  E(RHF) =  -169.004553366     A.U. after    7 cycles
 E2 =    -0.6162162859D+00 EUMP2 =    -0.16962076965238D+03
 E2 =    -0.6162162859D+00 EUMP2 =    -0.16962076965238D+03
 SCF Done:  E(RHF) =  -169.004553366     A.U. after    7 cycles
 E2 =    -0.6162162859D+00 EUMP2 =    -0.16962076965238D+03
 E2 =    -0.6162162859D+00 EUMP2 =    -0.16962076965238D+03
 SCF Done:  E(RHF) =  -169.004534916     A.U. after    7 cycles
 E2 =    -0.6162329927D+00 EUMP2 =    -0.16962076790874D+03
 E2 =    -0.6162329927D+00 EUMP2 =    -0.16962076790874D+03
 SCF Done:  E(RHF) =  -169.004568789     A.U. after    7 cycles
 E2 =    -0.6161985891D+00 EUMP2 =    -0.16962076737852D+03
 E2 =    -0.6161985891D+00 EUMP2 =    -0.16962076737852D+03
 E2 =    -0.6162161861D+00 EUMP2 =    -0.16962076703654D+03
 E2 =    -0.6162161861D+00 EUMP2 =    -0.16962076703654D+03
 E2 =    -0.6162161861D+00 EUMP2 =    -0.16962076703653D+03
 E2 =    -0.6162161861D+00 EUMP2 =    -0.16962076703653D+03
 E2 =    -0.6162172009D+00 EUMP2 =    -0.16962076234682D+03
 SCF Done:  E(RHF) =  -169.004411681     A.U. after    7 cycles
 E2 =    -0.6163404862D+00 EUMP2 =    -0.16962075216751D+03
 E2 =    -0.6163404862D+00 EUMP2 =    -0.16962075216751D+03
 SCF Done:  E(RHF) =  -169.004655496     A.U. after    7 cycles
 E2 =    -0.6160964950D+00 EUMP2 =    -0.16962075199112D+03
 E2 =    -0.6160964950D+00 EUMP2 =    -0.16962075199112D+03
 SCF Done:  E(RHF) =  -169.004268899     A.U. after    9 cycles
 E2 =    -0.6164800917D+00 EUMP2 =    -0.16962074899088D+03
 E2 =    -0.6164800917D+00 EUMP2 =    -0.16962074899088D+03
 SCF Done:  E(RHF) =  -169.004797657     A.U. after    9 cycles
 E2 =    -0.6159499543D+00 EUMP2 =    -0.16962074761175D+03
 E2 =    -0.6159499543D+00 EUMP2 =    -0.16962074761175D+03
 SCF Done:  E(RHF) =  -169.004388538     A.U. after    9 cycles
 E2 =    -0.6163200445D+00 EUMP2 =    -0.16962070858281D+03
 E2 =    -0.6163200445D+00 EUMP2 =    -0.16962070858281D+03
 SCF Done:  E(RHF) =  -169.004593097     A.U. after    9 cycles
 E2 =    -0.6161143236D+00 EUMP2 =    -0.16962070742083D+03
 E2 =    -0.6161143236D+00 EUMP2 =    -0.16962070742083D+03
 SCF Done:  E(RHF) =  -169.004811257     A.U. after    8 cycles
 E2 =    -0.6158687466D+00 EUMP2 =    -0.16962068000321D+03
 E2 =    -0.6158687466D+00 EUMP2 =    -0.16962068000321D+03
 SCF Done:  E(RHF) =  -169.004118116     A.U. after    8 cycles
 E2 =    -0.6165647305D+00 EUMP2 =    -0.16962068284638D+03
 E2 =    -0.6165647305D+00 EUMP2 =    -0.16962068284638D+03
 SCF Done:  E(RHF) =  -169.004416880     A.U. after    8 cycles
 E2 =    -0.6162581008D+00 EUMP2 =    -0.16962067498118D+03
 E2 =    -0.6162581008D+00 EUMP2 =    -0.16962067498118D+03
 SCF Done:  E(RHF) =  -169.004498618     A.U. after    8 cycles
 E2 =    -0.6161741380D+00 EUMP2 =    -0.16962067275609D+03
 E2 =    -0.6161741380D+00 EUMP2 =    -0.16962067275609D+03

 Alpha  occ. eigenvalues --  -20.53075 -15.59743 -11.35817  -1.38417  -1.22275
 Alpha  occ. eigenvalues --   -0.85411  -0.75536  -0.67549  -0.60985  -0.57192
 Alpha  occ. eigenvalues --   -0.43805  -0.42304
 Alpha virt. eigenvalues --    0.02083   0.03654   0.04885   0.08051   0.09859
 Alpha virt. eigenvalues --    0.10628   0.12471   0.13118   0.13845   0.15978
 Alpha virt. eigenvalues --    0.16457   0.18566   0.21484   0.22236   0.22419

 Mulliken charges:
               1
     1  C   -0.142283
     2  O   -0.504738
     3  N   -0.253896
     4  H    0.554258
     5  H    0.146626
     6  H    0.200033
 Sum of Mulliken charges =  -0.00000

 Dipole moment (field-independent basis, Debye):
    X=              3.8228    Y=             -0.6035    Z=             -0.0000  Tot=              3.8701
 Quadrupole moment (field-independent basis, Debye-Ang):
   XX=            -18.7991   YY=            -15.1042   ZZ=            -19.3027
   XY=              0.0985   XZ=              0.0000   YZ=             -0.0000

  Exact polarizability:      35.568      -2.448      28.215       0.000       0.000      20.391
 Approx polarizability:      26.901      -0.384      21.402      -0.000      -0.000      17.669

                      1                      2                      3
                     A"                     A'                     A"
 Frequencies --    132.7022               562.5514               638.3218
 Red. masses --      1.2296                 2.4410                 1.2047
 Frc consts  --      0.0128                 0.4551                 0.2892
 IR Inten    --    208.2438                10.1769                11.7475

                      4                      5                      6
                     A"                     A'                     A'
 Frequencies --   1049.0483              1051.2851              1278.6803
 Red. masses --      1.5313                 1.7519                 2.8650
 Frc consts  --      0.9929                 1.1408                 2.7599
 IR Inten    --      4.8145                 5.1582               113.8583

                      7                      8                      9
                     A'                     A'                     A'
 Frequencies --   1421.1146              1618.7111              1782.9491
 Red. masses --      1.1969                 1.2507                 7.0438
 Frc consts  --      1.4242                 1.9308                13.1927
 IR Inten    --      5.0616                50.3082               411.7412

                     10                     11                     12
                     A'                     A'                     A'
 Frequencies --   3023.3250              3615.8297              3767.2414
 Red. masses --      1.0869                 1.0458                 1.1053
 Frc consts  --      5.8536                 8.0562                 9.2422
 IR Inten    --     75.6595                52.9251                59.4230

 - Thermochemistry -
 -------------------
 Temperature   298.150 Kelvin.  Pressure   1.00000 Atm.
 Atom     1 has atomic number  6 and mass  12.00000

 Molecular mass:    45.02146 amu.
 Principal axes and moments of inertia in atomic units:
                           1         2         3
     Eigenvalues --    24.60324 159.08006 183.68329
           X            0.93324   0.35925   0.00000
           Y           -0.35925   0.93324   0.00000
           Z           -0.00000   0.00000   1.00000
 This molecule is an asymmetric top.
 Rotational symmetry number  1.
 Rotational temperatures (Kelvin)      3.52043     0.54447     0.47154
 Rotational constants (GHZ):          73.35380    11.34486     9.82529
 Zero-point vibrational energy     119278.2 (Joules/Mol)
                                   28.50818 (Kcal/Mol)
 Warning -- explicit consideration of   2 degrees of freedom as
           vibrations may cause significant error
 Vibrational temperatures:    190.93   809.39   918.40  1509.35  1512.56
          (Kelvin)           1839.74  2044.67  2328.96  2565.27  4349.89
                             5202.37  5420.22

 Zero-point correction=                           0.045431 (Hartree/Particle)
 Thermal correction to Energy=                    0.049343
 Thermal correction to Enthalpy=                  0.050287
 Thermal correction to Gibbs Free Energy=         0.020561
 Sum of electronic and zero-point Energies=           -169.575339
 Sum of electronic and thermal Energies=              -169.571427
 Sum of electronic and thermal Enthalpies=            -169.570482
 Sum of electronic and thermal Free Energies=         -169.600209

                     E (Thermal)             CV                S
                      KCal/Mol        Cal/Mol-Kelvin    Cal/Mol-Kelvin
 Total                   30.963             10.931             62.564
 Electronic               0.000              0.000              0.000
 Translational            0.889              2.981             37.339
 Rotational               0.889              2.981             21.202
 Vibrational             29.186              4.969              4.023
 Vibration     1          0.613              1.921              2.907
 Vibration     2          0.918              1.112              0.519

 ## DEPERTURBED TRANSITIONS MOMENTS ##

 Electric dipole : Fundamental Bands
 ------------------------------------------------------------------------

 ## AFTER VARIATIONAL CORRECTION

 Electric dipole : Fundamental Bands
 ------------------------------------------------------------------------

 Optimization completed.
    -- Stationary point found.
 Normal termination of Gaussian 16 at Sun Mar 30 02:38:18 2025.
