 Gaussian 16, Revision C.01,
 Gaussian 16:  EM64L-G16RevC.01  3-Jul-2019

 ----------------------------------------------
 # MP2/aug-cc-pVDZ opt freq=(vibrot,anharmonic)
 ----------------------------------------------

 ----
 blah
 ----
 Symbolic Z-matrix:
 Charge =  0 Multiplicity = 1

 SCF Done:  E(RHF) =  -188.786313794     A.U. after   13 cycles
 E2 =    -0.5332867458D+00 EUMP2 =    -0.18931960053960D+03
 SCF Done:  E(RHF) =  -188.787135625     A.U. after   11 cycles
 E2 =    -0.5327174805D+00 EUMP2 =    -0.18931985310572D+03
 SCF Done:  E(RHF) =  -188.787120684     A.U. after   10 cycles
 E2 =    -0.5327496386D+00 EUMP2 =    -0.18931987032252D+03
 SCF Done:  E(RHF) =  -188.787079446     A.U. after    9 cycles
 E2 =    -0.5327930704D+00 EUMP2 =    -0.18931987251663D+03
 Optimization completed.
    -- Stationary point found.
 Normal termination of Gaussian 16 at Thu Mar 20 22:06:57 2025.

 ----------------------------------------------------------------------
 #N Geom=AllCheck Guess=TCheck SCRF=Check GenChk RMP2(FC)/Aug-CC-pVDZ F
 req
 ----------------------------------------------------------------------

 Structure from the checkpoint file:  "/scr/Gau-1446.chk"
 ----
 blah
 ----
 Charge =  0 Multiplicity = 1

                         Standard orientation:
 ---------------------------------------------------------------------
 Center     Atomic      Atomic             Coordinates (Angstroms)
 Number     Number       Type             X           Y           Z
 ---------------------------------------------------------------------
      1          6           0       -0.131786    0.368549    0.000024
      2          8           0       -1.186318   -0.222562   -0.000008
      3          8           0        1.067255   -0.284663   -0.000001
      4          1           0        1.780054    0.372971   -0.000031
      5          1           0       -0.036828    1.473534   -0.000039
 ---------------------------------------------------------------------

 SCF Done:  E(RHF) =  -188.787079446     A.U. after    1 cycles
 E2 =    -0.5327930687D+00 EUMP2 =    -0.18931987251495D+03
 E2 =    -0.5327930687D+00 EUMP2 =    -0.18931987251495D+03
 SCF Done:  E(RHF) =  -188.787075319     A.U. after   10 cycles
 E2 =    -0.5327953686D+00 EUMP2 =    -0.18931987068744D+03
 E2 =    -0.5327953686D+00 EUMP2 =    -0.18931987068744D+03
 SCF Done:  E(RHF) =  -188.787075290     A.U. after   10 cycles
 E2 =    -0.5327953669D+00 EUMP2 =    -0.18931987065660D+03
 E2 =    -0.5327953669D+00 EUMP2 =    -0.18931987065660D+03
 SCF Done:  E(RHF) =  -188.787133123     A.U. after    9 cycles
 E2 =    -0.5327361733D+00 EUMP2 =    -0.18931986929658D+03
 E2 =    -0.5327361733D+00 EUMP2 =    -0.18931986929658D+03
 SCF Done:  E(RHF) =  -188.787018382     A.U. after    9 cycles
 E2 =    -0.5328517742D+00 EUMP2 =    -0.18931987015665D+03
 E2 =    -0.5328517742D+00 EUMP2 =    -0.18931987015665D+03
 SCF Done:  E(RHF) =  -188.787070086     A.U. after    9 cycles
 E2 =    -0.5327955224D+00 EUMP2 =    -0.18931986560851D+03
 E2 =    -0.5327955224D+00 EUMP2 =    -0.18931986560851D+03
 E2 =    -0.5327956089D+00 EUMP2 =    -0.18931986536003D+03
 E2 =    -0.5327956089D+00 EUMP2 =    -0.18931986536003D+03
 E2 =    -0.5329867732D+00 EUMP2 =    -0.18931986456859D+03
 E2 =    -0.5329867732D+00 EUMP2 =    -0.18931986456859D+03
 SCF Done:  E(RHF) =  -188.787194618     A.U. after    9 cycles
 E2 =    -0.5326666414D+00 EUMP2 =    -0.18931986125890D+03
 E2 =    -0.5326666414D+00 EUMP2 =    -0.18931986125890D+03
 SCF Done:  E(RHF) =  -188.786935103     A.U. after    9 cycles
 E2 =    -0.5329267561D+00 EUMP2 =    -0.18931986185955D+03
 E2 =    -0.5329267561D+00 EUMP2 =    -0.18931986185955D+03
 SCF Done:  E(RHF) =  -188.787184738     A.U. after    9 cycles
 E2 =    -0.5326746570D+00 EUMP2 =    -0.18931985939481D+03
 E2 =    -0.5326746570D+00 EUMP2 =    -0.18931985939481D+03
 SCF Done:  E(RHF) =  -188.786943129     A.U. after    9 cycles
 E2 =    -0.5329158571D+00 EUMP2 =    -0.18931985898655D+03
 E2 =    -0.5329158571D+00 EUMP2 =    -0.18931985898655D+03
 SCF Done:  E(RHF) =  -188.787449332     A.U. after   10 cycles
 E2 =    -0.5324008888D+00 EUMP2 =    -0.18931985022088D+03
 E2 =    -0.5324008888D+00 EUMP2 =    -0.18931985022088D+03
 SCF Done:  E(RHF) =  -188.786664896     A.U. after   10 cycles
 E2 =    -0.5331858658D+00 EUMP2 =    -0.18931985076208D+03
 E2 =    -0.5331858658D+00 EUMP2 =    -0.18931985076208D+03
 SCF Done:  E(RHF) =  -188.787143090     A.U. after   10 cycles
 E2 =    -0.5326641590D+00 EUMP2 =    -0.18931980724888D+03
 E2 =    -0.5326641590D+00 EUMP2 =    -0.18931980724888D+03
 SCF Done:  E(RHF) =  -188.786887141     A.U. after   10 cycles
 E2 =    -0.5329245822D+00 EUMP2 =    -0.18931981172268D+03
 E2 =    -0.5329245822D+00 EUMP2 =    -0.18931981172268D+03
 SCF Done:  E(RHF) =  -188.787475056     A.U. after   10 cycles
 E2 =    -0.5322939614D+00 EUMP2 =    -0.18931976901781D+03
 E2 =    -0.5322939614D+00 EUMP2 =    -0.18931976901781D+03
 SCF Done:  E(RHF) =  -188.786487476     A.U. after   10 cycles
 E2 =    -0.5332940182D+00 EUMP2 =    -0.18931978149427D+03
 E2 =    -0.5332940182D+00 EUMP2 =    -0.18931978149427D+03

 Alpha  occ. eigenvalues --  -20.64165 -20.57765 -11.41355  -1.46922  -1.37921
 Alpha  occ. eigenvalues --   -0.87008  -0.78944  -0.67074  -0.63139  -0.60223
 Alpha  occ. eigenvalues --   -0.49265  -0.47019
 Alpha virt. eigenvalues --    0.02197   0.04779   0.08158   0.09482   0.12191
 Alpha virt. eigenvalues --    0.14713   0.15530   0.19798   0.20242   0.22582
 Alpha virt. eigenvalues --    0.23040   0.27751   0.28483   0.30596   0.31922

 Mulliken charges:
               1
     1  C    0.830177
     2  O   -0.434505
     3  O   -0.436874
     4  H    0.179879
     5  H   -0.138677
 Sum of Mulliken charges =  -0.00000

 Dipole moment (field-independent basis, Debye):
    X=              2.7667    Y=              2.7541    Z=             -0.0000  Tot=              3.9038
 Quadrupole moment (field-independent basis, Debye-Ang):
   XX=            -17.3886   YY=            -16.8787   ZZ=            -17.5550
   XY=              1.5457   XZ=             -0.0001   YZ=             -0.0001

  Exact polarizability:      30.549       2.152      22.512       0.000      -0.000      16.037
 Approx polarizability:      22.977       2.544      17.992       0.000       0.000      14.148

                      1                      2                      3
                      A                      A                      A
 Frequencies --    522.0160               642.3796              1019.6890
 Red. masses --      1.1166                 6.5414                 1.6778
 Frc consts  --      0.1793                 1.5904                 1.0279
 IR Inten    --     83.1876                10.7099                 0.3607

                      4                      5                      6
                      A                      A                      A
 Frequencies --   1097.2686              1273.1623              1404.2424
 Red. masses --      2.8384                 1.5690                 1.1382
 Frc consts  --      2.0135                 1.4984                 1.3224
 IR Inten    --     66.8260               294.2792                 0.0750

                      7                      8                      9
                      A                      A                      A
 Frequencies --   1805.3211              3053.7421              3793.1596
 Red. masses --      8.2371                 1.0909                 1.0664
 Frc consts  --     15.8174                 5.9935                 9.0398
 IR Inten    --    266.6744                62.8167                72.7608

 - Thermochemistry -
 -------------------
 Temperature   298.150 Kelvin.  Pressure   1.00000 Atm.
 Atom     1 has atomic number  6 and mass  12.00000

 Molecular mass:    46.00548 amu.
 Principal axes and moments of inertia in atomic units:
                           1         2         3
     Eigenvalues --    21.29135 157.40996 178.70131
           X            0.99984   0.01767  -0.00000
           Y           -0.01767   0.99984  -0.00001
           Z            0.00000   0.00001   1.00000
 This molecule is an asymmetric top.
 Rotational symmetry number  1.
 Rotational temperatures (Kelvin)      4.06803     0.55024     0.48469
 Rotational constants (GHZ):          84.76406    11.46523    10.09921
 Zero-point vibrational energy      87393.1 (Joules/Mol)
                                   20.88745 (Kcal/Mol)
 Warning -- explicit consideration of   1 degrees of freedom as
           vibrations may cause significant error
 Vibrational temperatures:    751.06   924.24  1467.11  1578.72  1831.80
          (Kelvin)           2020.39  2597.45  4393.65  5457.51

 Zero-point correction=                           0.033286 (Hartree/Particle)
 Thermal correction to Energy=                    0.036546
 Thermal correction to Enthalpy=                  0.037490
 Thermal correction to Gibbs Free Energy=         0.009166
 Sum of electronic and zero-point Energies=           -189.286586
 Sum of electronic and thermal Energies=              -189.283327
 Sum of electronic and thermal Enthalpies=            -189.282383
 Sum of electronic and thermal Free Energies=         -189.310707

                     E (Thermal)             CV                S
                      KCal/Mol        Cal/Mol-Kelvin    Cal/Mol-Kelvin
 Total                   22.933              9.036             59.613
 Electronic               0.000              0.000              0.000
 Translational            0.889              2.981             37.404
 Rotational               0.889              2.981             21.021
 Vibrational             21.155              3.074              1.188
 Vibration     1          0.877              1.201              0.605

 ## DEPERTURBED TRANSITIONS MOMENTS ##

 Electric dipole : Fundamental Bands
 ------------------------------------------------------------------------

 ## AFTER VARIATIONAL CORRECTION

 Electric dipole : Fundamental Bands
 ------------------------------------------------------------------------

 Optimization completed.
    -- Stationary point found.
 Normal termination of Gaussian 16 at Thu Mar 20 22:12:42 2025.
