 Gaussian 16, Revision C.01,
 Gaussian 16:  EM64L-G16RevC.01  3-Jul-2019

 ----------------------------------------------
 # MP2/aug-cc-pVTZ opt freq=(vibrot,anharmonic)
 ----------------------------------------------

 ----
 blah
 ----
 Symbolic Z-matrix:
 Charge =  0 Multiplicity = 1

 SCF Done:  E(RHF) =  -188.832718887     A.U. after   12 cycles
 E2 =    -0.6465918571D+00 EUMP2 =    -0.18947931074398D+03
 SCF Done:  E(RHF) =  -188.835842127     A.U. after   10 cycles
 E2 =    -0.6441293350D+00 EUMP2 =    -0.18947997146173D+03
 SCF Done:  E(RHF) =  -188.836066762     A.U. after    8 cycles
 E2 =    -0.6439280629D+00 EUMP2 =    -0.18947999482517D+03
 SCF Done:  E(RHF) =  -188.836024834     A.U. after    7 cycles
 E2 =    -0.6439721420D+00 EUMP2 =    -0.18947999697574D+03
 Optimization completed.
    -- Stationary point found.
 Normal termination of Gaussian 16 at Thu Mar 20 22:14:42 2025.

 ----------------------------------------------------------------------
 #N Geom=AllCheck Guess=TCheck SCRF=Check GenChk RMP2(FC)/Aug-CC-pVTZ F
 req
 ----------------------------------------------------------------------

 Structure from the checkpoint file:  "/scr/Gau-43422.chk"
 ----
 blah
 ----
 Charge =  0 Multiplicity = 1

                         Standard orientation:
 ---------------------------------------------------------------------
 Center     Atomic      Atomic             Coordinates (Angstroms)
 Number     Number       Type             X           Y           Z
 ---------------------------------------------------------------------
      1          6           0       -0.130435    0.364093    0.000014
      2          8           0       -1.177428   -0.219689   -0.000005
      3          8           0        1.058465   -0.282031   -0.000000
      4          1           0        1.770052    0.370548   -0.000018
      5          1           0       -0.035737    1.458653   -0.000024
 ---------------------------------------------------------------------

 SCF Done:  E(RHF) =  -188.836024834     A.U. after    1 cycles
 E2 =    -0.6439721354D+00 EUMP2 =    -0.18947999696914D+03
 E2 =    -0.6439721354D+00 EUMP2 =    -0.18947999696914D+03
 SCF Done:  E(RHF) =  -188.836020804     A.U. after    9 cycles
 E2 =    -0.6439742907D+00 EUMP2 =    -0.18947999509473D+03
 E2 =    -0.6439742907D+00 EUMP2 =    -0.18947999509473D+03
 SCF Done:  E(RHF) =  -188.836020787     A.U. after    9 cycles
 E2 =    -0.6439742895D+00 EUMP2 =    -0.18947999507617D+03
 E2 =    -0.6439742895D+00 EUMP2 =    -0.18947999507617D+03
 SCF Done:  E(RHF) =  -188.836070861     A.U. after    8 cycles
 E2 =    -0.6439228075D+00 EUMP2 =    -0.18947999366888D+03
 E2 =    -0.6439228075D+00 EUMP2 =    -0.18947999366888D+03
 SCF Done:  E(RHF) =  -188.835971191     A.U. after    8 cycles
 E2 =    -0.6440232618D+00 EUMP2 =    -0.18947999445258D+03
 E2 =    -0.6440232618D+00 EUMP2 =    -0.18947999445258D+03
 SCF Done:  E(RHF) =  -188.836015368     A.U. after    9 cycles
 E2 =    -0.6439744270D+00 EUMP2 =    -0.18947998979521D+03
 E2 =    -0.6439744270D+00 EUMP2 =    -0.18947998979521D+03
 E2 =    -0.6439744755D+00 EUMP2 =    -0.18947998964323D+03
 E2 =    -0.6439744755D+00 EUMP2 =    -0.18947998964323D+03
 E2 =    -0.6441223483D+00 EUMP2 =    -0.18947998958046D+03
 E2 =    -0.6441223483D+00 EUMP2 =    -0.18947998958046D+03
 SCF Done:  E(RHF) =  -188.836145217     A.U. after    9 cycles
 E2 =    -0.6438384569D+00 EUMP2 =    -0.18947998367411D+03
 E2 =    -0.6438384569D+00 EUMP2 =    -0.18947998367410D+03
 SCF Done:  E(RHF) =  -188.835875620     A.U. after    9 cycles
 E2 =    -0.6441126868D+00 EUMP2 =    -0.18947998830688D+03
 E2 =    -0.6441126868D+00 EUMP2 =    -0.18947998830688D+03
 SCF Done:  E(RHF) =  -188.836118945     A.U. after    9 cycles
 E2 =    -0.6438635629D+00 EUMP2 =    -0.18947998250791D+03
 E2 =    -0.6438635629D+00 EUMP2 =    -0.18947998250791D+03
 SCF Done:  E(RHF) =  -188.835898898     A.U. after    9 cycles
 E2 =    -0.6440852871D+00 EUMP2 =    -0.18947998418539D+03
 E2 =    -0.6440852871D+00 EUMP2 =    -0.18947998418539D+03
 SCF Done:  E(RHF) =  -188.836357571     A.U. after    9 cycles
 E2 =    -0.6436174321D+00 EUMP2 =    -0.18947997500342D+03
 E2 =    -0.6436174321D+00 EUMP2 =    -0.18947997500342D+03
 SCF Done:  E(RHF) =  -188.835645661     A.U. after    9 cycles
 E2 =    -0.6443279771D+00 EUMP2 =    -0.18947997363829D+03
 E2 =    -0.6443279771D+00 EUMP2 =    -0.18947997363829D+03
 SCF Done:  E(RHF) =  -188.836036894     A.U. after    9 cycles
 E2 =    -0.6438960686D+00 EUMP2 =    -0.18947993296214D+03
 E2 =    -0.6438960686D+00 EUMP2 =    -0.18947993296214D+03
 SCF Done:  E(RHF) =  -188.835883140     A.U. after    9 cycles
 E2 =    -0.6440528822D+00 EUMP2 =    -0.18947993602246D+03
 E2 =    -0.6440528822D+00 EUMP2 =    -0.18947993602246D+03
 SCF Done:  E(RHF) =  -188.836386596     A.U. after    9 cycles
 E2 =    -0.6435080339D+00 EUMP2 =    -0.18947989462983D+03
 E2 =    -0.6435080339D+00 EUMP2 =    -0.18947989462983D+03
 SCF Done:  E(RHF) =  -188.835464874     A.U. after    9 cycles
 E2 =    -0.6444381141D+00 EUMP2 =    -0.18947990298781D+03
 E2 =    -0.6444381141D+00 EUMP2 =    -0.18947990298781D+03

 Alpha  occ. eigenvalues --  -20.63198 -20.56455 -11.39826  -1.47113  -1.37901
 Alpha  occ. eigenvalues --   -0.86987  -0.79339  -0.67108  -0.63551  -0.60246
 Alpha  occ. eigenvalues --   -0.49414  -0.47048
 Alpha virt. eigenvalues --    0.01728   0.03986   0.07012   0.08061   0.10487
 Alpha virt. eigenvalues --    0.12032   0.14616   0.15628   0.16156   0.17949
 Alpha virt. eigenvalues --    0.18746   0.21626   0.22832   0.24428   0.26126

 Mulliken charges:
               1
     1  C   -0.060340
     2  O   -0.435117
     3  O   -0.271378
     4  H    0.230488
     5  H    0.536349
 Sum of Mulliken charges =  -0.00000

 Dipole moment (field-independent basis, Debye):
    X=              2.7884    Y=              2.7178    Z=             -0.0000  Tot=              3.8938
 Quadrupole moment (field-independent basis, Debye-Ang):
   XX=            -17.1197   YY=            -16.6615   ZZ=            -17.3513
   XY=              1.5453   XZ=             -0.0001   YZ=             -0.0000

  Exact polarizability:      30.195       1.955      22.512       0.000      -0.000      16.395
 Approx polarizability:      22.600       2.360      17.911       0.000       0.000      14.360

                      1                      2                      3
                      A                      A                      A
 Frequencies --    525.3049               654.6990              1035.1727
 Red. masses --      1.1186                 6.3675                 1.6763
 Frc consts  --      0.1819                 1.6081                 1.0584
 IR Inten    --     83.3124                10.5789                 0.2389

                      4                      5                      6
                      A                      A                      A
 Frequencies --   1117.6336              1273.9271              1419.2156
 Red. masses --      2.5401                 1.6829                 1.1394
 Frc consts  --      1.8694                 1.6091                 1.3522
 IR Inten    --     50.2957               313.1405                 0.0181

                      7                      8                      9
                      A                      A                      A
 Frequencies --   1830.2568              3040.0189              3810.4764
 Red. masses --      8.3627                 1.0908                 1.0662
 Frc consts  --     16.5051                 5.9393                 9.1211
 IR Inten    --    274.7528                59.8368                80.3874

 - Thermochemistry -
 -------------------
 Temperature   298.150 Kelvin.  Pressure   1.00000 Atm.
 Atom     1 has atomic number  6 and mass  12.00000

 Molecular mass:    46.00548 amu.
 Principal axes and moments of inertia in atomic units:
                           1         2         3
     Eigenvalues --    20.83524 155.00127 175.83651
           X            0.99984   0.01775  -0.00000
           Y           -0.01775   0.99984  -0.00001
           Z            0.00000   0.00001   1.00000
 This molecule is an asymmetric top.
 Rotational symmetry number  1.
 Rotational temperatures (Kelvin)      4.15709     0.55879     0.49258
 Rotational constants (GHZ):          86.61965    11.64340    10.26375
 Zero-point vibrational energy      87965.6 (Joules/Mol)
                                   21.02429 (Kcal/Mol)
 Warning -- explicit consideration of   1 degrees of freedom as
           vibrations may cause significant error
 Vibrational temperatures:    755.80   941.97  1489.38  1608.03  1832.90
          (Kelvin)           2041.93  2633.33  4373.91  5482.43

 Zero-point correction=                           0.033504 (Hartree/Particle)
 Thermal correction to Energy=                    0.036751
 Thermal correction to Enthalpy=                  0.037695
 Thermal correction to Gibbs Free Energy=         0.009414
 Sum of electronic and zero-point Energies=           -189.446493
 Sum of electronic and thermal Energies=              -189.443246
 Sum of electronic and thermal Enthalpies=            -189.442302
 Sum of electronic and thermal Free Energies=         -189.470583

                     E (Thermal)             CV                S
                      KCal/Mol        Cal/Mol-Kelvin    Cal/Mol-Kelvin
 Total                   23.062              8.963             59.523
 Electronic               0.000              0.000              0.000
 Translational            0.889              2.981             37.404
 Rotational               0.889              2.981             20.968
 Vibrational             21.284              3.001              1.151
 Vibration     1          0.880              1.194              0.598

 Optimization completed.
    -- Stationary point found.
 Normal termination of Gaussian 16 at Thu Mar 20 23:10:34 2025.
