 Gaussian 16, Revision C.01,
 Gaussian 16:  EM64L-G16RevC.01  3-Jul-2019

 ----------------------------------------------
 # MP2/aug-cc-pVTZ opt freq=(vibrot,anharmonic)
 ----------------------------------------------

 ----
 blah
 ----
 Symbolic Z-matrix:
 Charge =  0 Multiplicity = 1

 SCF Done:  E(RHF) =  -188.833214996     A.U. after   12 cycles
 E2 =    -0.6430671466D+00 EUMP2 =    -0.18947628214276D+03
 SCF Done:  E(RHF) =  -188.843146864     A.U. after   11 cycles
 E2 =    -0.6430255204D+00 EUMP2 =    -0.18948617238486D+03
 SCF Done:  E(RHF) =  -188.843729085     A.U. after   10 cycles
 E2 =    -0.6429867596D+00 EUMP2 =    -0.18948671584472D+03
 SCF Done:  E(RHF) =  -188.843566404     A.U. after    9 cycles
 E2 =    -0.6431914913D+00 EUMP2 =    -0.18948675789558D+03
 SCF Done:  E(RHF) =  -188.843527538     A.U. after    8 cycles
 E2 =    -0.6432335787D+00 EUMP2 =    -0.18948676111702D+03
 Optimization completed.
    -- Stationary point found.
 Normal termination of Gaussian 16 at Thu Mar 20 23:13:29 2025.

 ----------------------------------------------------------------------
 #N Geom=AllCheck Guess=TCheck SCRF=Check GenChk RMP2(FC)/Aug-CC-pVTZ F
 req
 ----------------------------------------------------------------------

 Structure from the checkpoint file:  "/scr/Gau-77511.chk"
 ----
 blah
 ----
 Charge =  0 Multiplicity = 1

                         Standard orientation:
 ---------------------------------------------------------------------
 Center     Atomic      Atomic             Coordinates (Angstroms)
 Number     Number       Type             X           Y           Z
 ---------------------------------------------------------------------
      1          6           0       -0.132261    0.400999   -0.000008
      2          8           0       -1.138510   -0.262362    0.000002
      3          8           0        1.120533   -0.092529    0.000002
      4          1           0        1.034738   -1.059779   -0.000004
      5          1           0       -0.097358    1.492919    0.000014
 ---------------------------------------------------------------------

 SCF Done:  E(RHF) =  -188.843527538     A.U. after    1 cycles
 E2 =    -0.6432335610D+00 EUMP2 =    -0.18948676109927D+03
 E2 =    -0.6432335610D+00 EUMP2 =    -0.18948676109927D+03
 SCF Done:  E(RHF) =  -188.843565573     A.U. after    8 cycles
 E2 =    -0.6431925206D+00 EUMP2 =    -0.18948675809359D+03
 E2 =    -0.6431925206D+00 EUMP2 =    -0.18948675809359D+03
 SCF Done:  E(RHF) =  -188.843482530     A.U. after    8 cycles
 E2 =    -0.6432762833D+00 EUMP2 =    -0.18948675881285D+03
 E2 =    -0.6432762833D+00 EUMP2 =    -0.18948675881285D+03
 SCF Done:  E(RHF) =  -188.843522184     A.U. after    9 cycles
 E2 =    -0.6432358305D+00 EUMP2 =    -0.18948675801409D+03
 E2 =    -0.6432358305D+00 EUMP2 =    -0.18948675801409D+03
 SCF Done:  E(RHF) =  -188.843522169     A.U. after    9 cycles
 E2 =    -0.6432358288D+00 EUMP2 =    -0.18948675799808D+03
 E2 =    -0.6432358288D+00 EUMP2 =    -0.18948675799808D+03
 E2 =    -0.6432358143D+00 EUMP2 =    -0.18948675348532D+03
 E2 =    -0.6432358143D+00 EUMP2 =    -0.18948675348532D+03
 E2 =    -0.6432357864D+00 EUMP2 =    -0.18948675357044D+03
 E2 =    -0.6432357864D+00 EUMP2 =    -0.18948675357044D+03
 E2 =    -0.6434607509D+00 EUMP2 =    -0.18948675223560D+03
 SCF Done:  E(RHF) =  -188.843511818     A.U. after    9 cycles
 E2 =    -0.6432371686D+00 EUMP2 =    -0.18948674898704D+03
 E2 =    -0.6432371686D+00 EUMP2 =    -0.18948674898704D+03
 SCF Done:  E(RHF) =  -188.843515226     A.U. after    9 cycles
 E2 =    -0.6432350710D+00 EUMP2 =    -0.18948675029693D+03
 E2 =    -0.6432350710D+00 EUMP2 =    -0.18948675029693D+03
 SCF Done:  E(RHF) =  -188.843669434     A.U. after    9 cycles
 E2 =    -0.6430782618D+00 EUMP2 =    -0.18948674769625D+03
 E2 =    -0.6430782618D+00 EUMP2 =    -0.18948674769624D+03
 SCF Done:  E(RHF) =  -188.843354349     A.U. after    9 cycles
 E2 =    -0.6433933273D+00 EUMP2 =    -0.18948674767599D+03
 E2 =    -0.6433933273D+00 EUMP2 =    -0.18948674767599D+03
 SCF Done:  E(RHF) =  -188.843778363     A.U. after    9 cycles
 E2 =    -0.6429610038D+00 EUMP2 =    -0.18948673936658D+03
 E2 =    -0.6429610038D+00 EUMP2 =    -0.18948673936658D+03
 SCF Done:  E(RHF) =  -188.843232434     A.U. after    9 cycles
 E2 =    -0.6435069262D+00 EUMP2 =    -0.18948673935973D+03
 E2 =    -0.6435069262D+00 EUMP2 =    -0.18948673935973D+03
 SCF Done:  E(RHF) =  -188.843547731     A.U. after    9 cycles
 E2 =    -0.6431466385D+00 EUMP2 =    -0.18948669436997D+03
 E2 =    -0.6431466385D+00 EUMP2 =    -0.18948669436997D+03
 SCF Done:  E(RHF) =  -188.843371115     A.U. after    9 cycles
 E2 =    -0.6433247967D+00 EUMP2 =    -0.18948669591168D+03
 E2 =    -0.6433247967D+00 EUMP2 =    -0.18948669591168D+03
 SCF Done:  E(RHF) =  -188.842973140     A.U. after    8 cycles
 E2 =    -0.6436932509D+00 EUMP2 =    -0.18948666639076D+03
 E2 =    -0.6436932509D+00 EUMP2 =    -0.18948666639076D+03
 SCF Done:  E(RHF) =  -188.843890891     A.U. after    8 cycles
 E2 =    -0.6427759348D+00 EUMP2 =    -0.18948666682531D+03
 E2 =    -0.6427759348D+00 EUMP2 =    -0.18948666682531D+03

 Alpha  occ. eigenvalues --  -20.62969 -20.56927 -11.39911  -1.47876  -1.37848
 Alpha  occ. eigenvalues --   -0.89971  -0.72577  -0.71566  -0.63853  -0.60784
 Alpha  occ. eigenvalues --   -0.49818  -0.47582
 Alpha virt. eigenvalues --    0.02943   0.03744   0.07408   0.08042   0.10731
 Alpha virt. eigenvalues --    0.13398   0.14286   0.15163   0.16076   0.17449
 Alpha virt. eigenvalues --    0.18335   0.22450   0.22777   0.24039   0.26957

 Mulliken charges:
               1
     1  C   -0.108258
     2  O   -0.446078
     3  O   -0.267667
     4  H    0.234956
     5  H    0.587047
 Sum of Mulliken charges =  -0.00000

 Dipole moment (field-independent basis, Debye):
    X=              1.4108    Y=              0.2412    Z=             -0.0000  Tot=              1.4313
 Quadrupole moment (field-independent basis, Debye-Ang):
   XX=            -21.5071   YY=            -13.9523   ZZ=            -17.3187
   XY=             -2.6573   XZ=             -0.0000   YZ=              0.0000

  Exact polarizability:      27.675       0.647      23.485      -0.000       0.000      16.234
 Approx polarizability:      20.915       1.538      18.709      -0.000      -0.000      14.272

                      1                      2                      3
                      A                      A                      A
 Frequencies --    626.3088               676.5970              1059.0261
 Red. masses --      3.4997                 1.2593                 1.5644
 Frc consts  --      0.8088                 0.3397                 1.0338
 IR Inten    --     40.6516               133.9224                 3.7288

                      4                      5                      6
                      A                      A                      A
 Frequencies --   1131.3494              1302.4097              1409.1410
 Red. masses --      3.1668                 1.8151                 1.1261
 Frc consts  --      2.3882                 1.8141                 1.3175
 IR Inten    --    264.3564                15.4998                 1.3405

                      7                      8                      9
                      A                      A                      A
 Frequencies --   1793.6804              3124.0042              3738.9142
 Red. masses --      8.1364                 1.0927                 1.0637
 Frc consts  --     15.4232                 6.2832                 8.7614
 IR Inten    --    332.2155                31.4395                78.6161

 - Thermochemistry -
 -------------------
 Temperature   298.150 Kelvin.  Pressure   1.00000 Atm.
 Atom     1 has atomic number  6 and mass  12.00000

 Molecular mass:    46.00548 amu.
 Principal axes and moments of inertia in atomic units:
                           1         2         3
     Eigenvalues --    23.21097 150.47589 173.68685
           X            0.99941  -0.03433  -0.00000
           Y            0.03433   0.99941   0.00000
           Z            0.00000  -0.00000   1.00000
 This molecule is an asymmetric top.
 Rotational symmetry number  1.
 Rotational temperatures (Kelvin)      3.73159     0.57560     0.49868
 Rotational constants (GHZ):          77.75381    11.99356    10.39078
 Zero-point vibrational energy      88891.1 (Joules/Mol)
                                   21.24548 (Kcal/Mol)
 Vibrational temperatures:    901.12   973.47  1523.70  1627.76  1873.88
          (Kelvin)           2027.44  2580.71  4494.75  5379.46

 Zero-point correction=                           0.033857 (Hartree/Particle)
 Thermal correction to Energy=                    0.037029
 Thermal correction to Enthalpy=                  0.037973
 Thermal correction to Gibbs Free Energy=         0.009772
 Sum of electronic and zero-point Energies=           -189.452904
 Sum of electronic and thermal Energies=              -189.449732
 Sum of electronic and thermal Enthalpies=            -189.448788
 Sum of electronic and thermal Free Energies=         -189.476989

                     E (Thermal)             CV                S
                      KCal/Mol        Cal/Mol-Kelvin    Cal/Mol-Kelvin
 Total                   23.236              8.660             59.355
 Electronic               0.000              0.000              0.000
 Translational            0.889              2.981             37.404
 Rotational               0.889              2.981             21.033
 Vibrational             21.458              2.698              0.918

 ## DEPERTURBED TRANSITIONS MOMENTS ##

 Electric dipole : Fundamental Bands
 ------------------------------------------------------------------------

 ## AFTER VARIATIONAL CORRECTION

 Electric dipole : Fundamental Bands
 ------------------------------------------------------------------------

 Optimization completed.
    -- Stationary point found.
 Normal termination of Gaussian 16 at Fri Mar 21 00:09:34 2025.
