 Gaussian 16, Revision C.01,
 Gaussian 16:  EM64L-G16RevC.01  3-Jul-2019

 ----------------------------------------------
 # MP2/aug-cc-pVDZ opt freq=(vibrot,anharmonic)
 ----------------------------------------------

 ----
 blah
 ----
 Symbolic Z-matrix:
 Charge =  0 Multiplicity = 1

 SCF Done:  E(RHF) =  -188.786495268     A.U. after   13 cycles
 E2 =    -0.5296155819D+00 EUMP2 =    -0.18931611084946D+03
 SCF Done:  E(RHF) =  -188.794606348     A.U. after   12 cycles
 E2 =    -0.5314406530D+00 EUMP2 =    -0.18932604700134D+03
 SCF Done:  E(RHF) =  -188.794915931     A.U. after   11 cycles
 E2 =    -0.5317063205D+00 EUMP2 =    -0.18932662225123D+03
 SCF Done:  E(RHF) =  -188.794785962     A.U. after   10 cycles
 E2 =    -0.5318828055D+00 EUMP2 =    -0.18932666876791D+03
 SCF Done:  E(RHF) =  -188.794758210     A.U. after    9 cycles
 E2 =    -0.5319144742D+00 EUMP2 =    -0.18932667268433D+03
 Optimization completed.
    -- Stationary point found.
 Normal termination of Gaussian 16 at Fri Mar 21 00:11:08 2025.

 ----------------------------------------------------------------------
 #N Geom=AllCheck Guess=TCheck SCRF=Check GenChk RMP2(FC)/Aug-CC-pVDZ F
 req
 ----------------------------------------------------------------------

 Structure from the checkpoint file:  "/scr/Gau-13669.chk"
 ----
 blah
 ----
 Charge =  0 Multiplicity = 1

                         Standard orientation:
 ---------------------------------------------------------------------
 Center     Atomic      Atomic             Coordinates (Angstroms)
 Number     Number       Type             X           Y           Z
 ---------------------------------------------------------------------
      1          6           0       -0.133480    0.404202   -0.000008
      2          8           0       -1.148527   -0.264349    0.000002
      3          8           0        1.130419   -0.093970    0.000002
      4          1           0        1.042187   -1.065151   -0.000004
      5          1           0       -0.096440    1.506491    0.000014
 ---------------------------------------------------------------------

 SCF Done:  E(RHF) =  -188.794758210     A.U. after    1 cycles
 E2 =    -0.5319144742D+00 EUMP2 =    -0.18932667268431D+03
 E2 =    -0.5319144742D+00 EUMP2 =    -0.18932667268431D+03
 SCF Done:  E(RHF) =  -188.794811288     A.U. after    9 cycles
 E2 =    -0.5318583322D+00 EUMP2 =    -0.18932666962008D+03
 E2 =    -0.5318583322D+00 EUMP2 =    -0.18932666962008D+03
 SCF Done:  E(RHF) =  -188.794698353     A.U. after    9 cycles
 E2 =    -0.5319722346D+00 EUMP2 =    -0.18932667058711D+03
 E2 =    -0.5319722346D+00 EUMP2 =    -0.18932667058710D+03
 SCF Done:  E(RHF) =  -188.794752740     A.U. after   10 cycles
 E2 =    -0.5319168658D+00 EUMP2 =    -0.18932666960562D+03
 E2 =    -0.5319168658D+00 EUMP2 =    -0.18932666960562D+03
 SCF Done:  E(RHF) =  -188.794752725     A.U. after   10 cycles
 E2 =    -0.5319168644D+00 EUMP2 =    -0.18932666958950D+03
 E2 =    -0.5319168644D+00 EUMP2 =    -0.18932666958950D+03
 E2 =    -0.5319169141D+00 EUMP2 =    -0.18932666523643D+03
 E2 =    -0.5319169141D+00 EUMP2 =    -0.18932666523643D+03
 E2 =    -0.5319168837D+00 EUMP2 =    -0.18932666531985D+03
 E2 =    -0.5319168837D+00 EUMP2 =    -0.18932666531985D+03
 E2 =    -0.5321673622D+00 EUMP2 =    -0.18932666405845D+03
 SCF Done:  E(RHF) =  -188.794754511     A.U. after   10 cycles
 E2 =    -0.5319061192D+00 EUMP2 =    -0.18932666063016D+03
 E2 =    -0.5319061192D+00 EUMP2 =    -0.18932666063016D+03
 SCF Done:  E(RHF) =  -188.794733802     A.U. after   10 cycles
 E2 =    -0.5319282712D+00 EUMP2 =    -0.18932666207325D+03
 E2 =    -0.5319282712D+00 EUMP2 =    -0.18932666207325D+03
 SCF Done:  E(RHF) =  -188.794912082     A.U. after    9 cycles
 E2 =    -0.5317475029D+00 EUMP2 =    -0.18932665958475D+03
 E2 =    -0.5317475029D+00 EUMP2 =    -0.18932665958475D+03
 SCF Done:  E(RHF) =  -188.794573650     A.U. after    9 cycles
 E2 =    -0.5320858060D+00 EUMP2 =    -0.18932665945558D+03
 E2 =    -0.5320858060D+00 EUMP2 =    -0.18932665945558D+03
 SCF Done:  E(RHF) =  -188.795045580     A.U. after   10 cycles
 E2 =    -0.5316059700D+00 EUMP2 =    -0.18932665155037D+03
 E2 =    -0.5316059700D+00 EUMP2 =    -0.18932665155037D+03
 SCF Done:  E(RHF) =  -188.794428186     A.U. after   10 cycles
 E2 =    -0.5322232497D+00 EUMP2 =    -0.18932665143569D+03
 E2 =    -0.5322232497D+00 EUMP2 =    -0.18932665143569D+03
 SCF Done:  E(RHF) =  -188.794830508     A.U. after    9 cycles
 E2 =    -0.5317744392D+00 EUMP2 =    -0.18932660494699D+03
 E2 =    -0.5317744392D+00 EUMP2 =    -0.18932660494699D+03
 SCF Done:  E(RHF) =  -188.794550725     A.U. after    9 cycles
 E2 =    -0.5320565699D+00 EUMP2 =    -0.18932660729493D+03
 E2 =    -0.5320565699D+00 EUMP2 =    -0.18932660729493D+03
 SCF Done:  E(RHF) =  -188.794170948     A.U. after    9 cycles
 E2 =    -0.5324073918D+00 EUMP2 =    -0.18932657834022D+03
 E2 =    -0.5324073918D+00 EUMP2 =    -0.18932657834022D+03
 SCF Done:  E(RHF) =  -188.795155912     A.U. after    9 cycles
 E2 =    -0.5314235900D+00 EUMP2 =    -0.18932657950238D+03
 E2 =    -0.5314235900D+00 EUMP2 =    -0.18932657950238D+03

 Alpha  occ. eigenvalues --  -20.63955 -20.58219 -11.41431  -1.47654  -1.37886
 Alpha  occ. eigenvalues --   -0.89840  -0.72235  -0.71619  -0.63431  -0.60767
 Alpha  occ. eigenvalues --   -0.49671  -0.47531
 Alpha virt. eigenvalues --    0.03662   0.04412   0.08598   0.09439   0.12281
 Alpha virt. eigenvalues --    0.15239   0.15998   0.19191   0.20741   0.22326
 Alpha virt. eigenvalues --    0.23351   0.27728   0.27905   0.29895   0.32843

 Mulliken charges:
               1
     1  C    0.808065
     2  O   -0.426274
     3  O   -0.371027
     4  H    0.107705
     5  H   -0.118470
 Sum of Mulliken charges =  -0.00000

 Dipole moment (field-independent basis, Debye):
    X=              1.3928    Y=              0.2509    Z=             -0.0000  Tot=              1.4152
 Quadrupole moment (field-independent basis, Debye-Ang):
   XX=            -21.8156   YY=            -14.1454   ZZ=            -17.5262
   XY=             -2.6975   XZ=             -0.0000   YZ=              0.0000

  Exact polarizability:      27.933       0.805      23.524      -0.000       0.000      15.931
 Approx polarizability:      21.228       1.719      18.798      -0.000      -0.000      14.094

                      1                      2                      3
                      A                      A                      A
 Frequencies --    618.1201               675.8243              1046.6338
 Red. masses --      3.6365                 1.2651                 1.5547
 Frc consts  --      0.8186                 0.3404                 1.0034
 IR Inten    --     38.5464               134.4945                 4.4128

                      4                      5                      6
                      A                      A                      A
 Frequencies --   1116.1134              1295.0928              1395.8217
 Red. masses --      3.6012                 1.6614                 1.1323
 Frc consts  --      2.6431                 1.6418                 1.2998
 IR Inten    --    270.1797                 8.0750                 1.2679

                      7                      8                      9
                      A                      A                      A
 Frequencies --   1770.9232              3138.2166              3724.3872
 Red. masses --      7.9382                 1.0926                 1.0640
 Frc consts  --     14.6680                 6.3401                 8.6956
 IR Inten    --    328.9624                33.3397                72.3276

 - Thermochemistry -
 -------------------
 Temperature   298.150 Kelvin.  Pressure   1.00000 Atm.
 Atom     1 has atomic number  6 and mass  12.00000

 Molecular mass:    46.00548 amu.
 Principal axes and moments of inertia in atomic units:
                           1         2         3
     Eigenvalues --    23.58314 153.12380 176.70694
           X            0.99942  -0.03408  -0.00000
           Y            0.03408   0.99942   0.00000
           Z            0.00000  -0.00000   1.00000
 This molecule is an asymmetric top.
 Rotational symmetry number  1.
 Rotational temperatures (Kelvin)      3.67271     0.56565     0.49016
 Rotational constants (GHZ):          76.52675    11.78616    10.21319
 Zero-point vibrational energy      88410.8 (Joules/Mol)
                                   21.13069 (Kcal/Mol)
 Warning -- explicit consideration of   1 degrees of freedom as
           vibrations may cause significant error
 Vibrational temperatures:    889.34   972.36  1505.87  1605.84  1863.35
          (Kelvin)           2008.28  2547.96  4515.19  5358.56

 Zero-point correction=                           0.033674 (Hartree/Particle)
 Thermal correction to Energy=                    0.036854
 Thermal correction to Enthalpy=                  0.037798
 Thermal correction to Gibbs Free Energy=         0.009562
 Sum of electronic and zero-point Energies=           -189.292999
 Sum of electronic and thermal Energies=              -189.289819
 Sum of electronic and thermal Enthalpies=            -189.288874
 Sum of electronic and thermal Free Energies=         -189.317111

                     E (Thermal)             CV                S
                      KCal/Mol        Cal/Mol-Kelvin    Cal/Mol-Kelvin
 Total                   23.126              8.713             59.429
 Electronic               0.000              0.000              0.000
 Translational            0.889              2.981             37.404
 Rotational               0.889              2.981             21.084
 Vibrational             21.349              2.751              0.941
 Vibration     1          0.978              0.994              0.420

 ## DEPERTURBED TRANSITIONS MOMENTS ##

 Electric dipole : Fundamental Bands
 ------------------------------------------------------------------------

 ## AFTER VARIATIONAL CORRECTION

 Electric dipole : Fundamental Bands
 ------------------------------------------------------------------------

 Optimization completed.
    -- Stationary point found.
 Normal termination of Gaussian 16 at Fri Mar 21 00:16:51 2025.
