 Gaussian 16, Revision A.03,
 Gaussian 16:  ES64L-G16RevA.03 25-Dec-2016

 ----------------------------------------------
 # mp2/aug-cc-pVTZ opt freq=(vibrot,anharmonic)
 ----------------------------------------------

 --
 HF
 --
 Symbolic Z-matrix:
 Charge =  0 Multiplicity = 1

 SCF Done:  E(RHF) =  -100.060833469     A.U. after    9 cycles
 E2 =    -0.2800572382D+00 EUMP2 =    -0.10034089070736D+03
 Optimization completed.
    -- Stationary point found.
 Normal termination of Gaussian 16 at Tue Jun 22 20:22:27 2021.

 ----------------------------------------------------------------------
 #N Geom=AllCheck Guess=TCheck SCRF=Check GenChk RMP2(FC)/Aug-CC-pVTZ F
 req
 ----------------------------------------------------------------------

 Structure from the checkpoint file:  "hf_mp2_avtz_anharm.chk"
 --
 HF
 --
 Charge =  0 Multiplicity = 1

                         Standard orientation:
 ---------------------------------------------------------------------
 Center     Atomic      Atomic             Coordinates (Angstroms)
 Number     Number       Type             X           Y           Z
 ---------------------------------------------------------------------
      1          9           0        0.000000    0.000000    0.092184
      2          1           0        0.000000    0.000000   -0.829654
 ---------------------------------------------------------------------

 SCF Done:  E(RHF) =  -100.060833469     A.U. after    1 cycles
 E2 =    -0.2800572381D+00 EUMP2 =    -0.10034089070725D+03
 E2 =    -0.2800572381D+00 EUMP2 =    -0.10034089070725D+03
 SCF Done:  E(RHF) =  -100.061268707     A.U. after    8 cycles
 E2 =    -0.2795042950D+00 EUMP2 =    -0.10034077300175D+03
 E2 =    -0.2795042950D+00 EUMP2 =    -0.10034077300175D+03
 SCF Done:  E(RHF) =  -100.060169480     A.U. after    8 cycles
 E2 =    -0.2806091239D+00 EUMP2 =    -0.10034077860360D+03
 E2 =    -0.2806091239D+00 EUMP2 =    -0.10034077860360D+03

 Alpha  occ. eigenvalues --  -26.29971  -1.59756  -0.76275  -0.64901  -0.64901
 Alpha virt. eigenvalues --    0.03018   0.13830   0.20161   0.20161   0.20688
 Alpha virt. eigenvalues --    0.28488   0.28488   0.31090   0.42453   0.70429
 Alpha virt. eigenvalues --    0.75958   0.75958   0.82899   0.82899   0.94677

 Mulliken charges:
               1
     1  F   -0.350989
     2  H    0.350989
 Sum of Mulliken charges =  -0.00000

 Dipole moment (field-independent basis, Debye):
    X=             -0.0000    Y=              0.0000    Z=             -1.8269  Tot=              1.8269
 Quadrupole moment (field-independent basis, Debye-Ang):
   XX=             -5.9198   YY=             -5.9198   ZZ=             -3.6947
   XY=             -0.0000   XZ=              0.0000   YZ=              0.0000

  Exact polarizability:   4.989   0.000   4.989  -0.000  -0.000   6.488
 Approx polarizability:   3.533   0.000   3.533  -0.000  -0.000   5.081

                      1
                     SG
 Frequencies --   4122.8665
 Red. masses --      1.0583
 Frc consts  --     10.5989
 IR Inten    --    120.6086

 - Thermochemistry -
 -------------------
 Temperature   298.150 Kelvin.  Pressure   1.00000 Atm.
 Atom     1 has atomic number  9 and mass  18.99840

 Molecular mass:    20.00623 amu.
 Principal axes and moments of inertia in atomic units:
                           1         2         3
     Eigenvalues --     0.00000   2.90432   2.90432
           X            0.00000  -0.00000   1.00000
           Y            0.00000   1.00000   0.00000
           Z            1.00000   0.00000   0.00000
 This molecule is a prolate symmetric top.
 Rotational symmetry number  1.
 Rotational temperature (Kelvin)     29.82248
 Rotational constant (GHZ):         621.399589
 Zero-point vibrational energy      24660.2 (Joules/Mol)
                                    5.89393 (Kcal/Mol)
 Vibrational temperatures:   5931.89
          (Kelvin)

 Zero-point correction=                           0.009393 (Hartree/Particle)
 Thermal correction to Energy=                    0.011753
 Thermal correction to Enthalpy=                  0.012697
 Thermal correction to Gibbs Free Energy=        -0.007013
 Sum of electronic and zero-point Energies=           -100.331498
 Sum of electronic and thermal Energies=              -100.329138
 Sum of electronic and thermal Enthalpies=            -100.328193
 Sum of electronic and thermal Free Energies=         -100.347904

                     E (Thermal)             CV                S
                      KCal/Mol        Cal/Mol-Kelvin    Cal/Mol-Kelvin
 Total                    7.375              4.968             41.484
 Electronic               0.000              0.000              0.000
 Translational            0.889              2.981             34.922
 Rotational               0.592              1.987              6.562
 Vibrational              5.894              0.000              0.000

 Optimization completed.
    -- Stationary point found.
 Normal termination of Gaussian 16 at Tue Jun 22 20:23:10 2021.
