 Gaussian 16, Revision A.03,
 Gaussian 16:  ES64L-G16RevA.03 25-Dec-2016

 ---------------------------------------------
 # MP2/aug-cc-pVDZ Opt Freq(vibrot,anharmonic)
 ---------------------------------------------

 --
 hf
 --
 Symbolic Z-matrix:
 Charge =  0 Multiplicity = 1

 SCF Done:  E(RHF) =  -100.033079482     A.U. after    9 cycles
 E2 =    -0.2227249871D+00 EUMP2 =    -0.10025580446880D+03
 Optimization completed.
    -- Stationary point found.
 Normal termination of Gaussian 16 at Tue Aug  4 15:32:50 2020.

 ----------------------------------------------------------------------
 #N Geom=AllCheck Guess=TCheck SCRF=Check GenChk RMP2(FC)/Aug-CC-pVDZ F
 req
 ----------------------------------------------------------------------

 Structure from the checkpoint file:  "hf.chk"
 --
 hf
 --
 Charge =  0 Multiplicity = 1

                         Standard orientation:
 ---------------------------------------------------------------------
 Center     Atomic      Atomic             Coordinates (Angstroms)
 Number     Number       Type             X           Y           Z
 ---------------------------------------------------------------------
      1          1           0        0.000000    0.000000   -0.832330
      2          9           0        0.000000    0.000000    0.092481
 ---------------------------------------------------------------------

 SCF Done:  E(RHF) =  -100.033079482     A.U. after    1 cycles
 E2 =    -0.2227249871D+00 EUMP2 =    -0.10025580446878D+03
 E2 =    -0.2227249871D+00 EUMP2 =    -0.10025580446878D+03
 SCF Done:  E(RHF) =  -100.033557753     A.U. after    8 cycles
 E2 =    -0.2221311636D+00 EUMP2 =    -0.10025568891678D+03
 E2 =    -0.2221311636D+00 EUMP2 =    -0.10025568891678D+03
 SCF Done:  E(RHF) =  -100.032377105     A.U. after    8 cycles
 E2 =    -0.2233175971D+00 EUMP2 =    -0.10025569470236D+03
 E2 =    -0.2233175971D+00 EUMP2 =    -0.10025569470236D+03

 Alpha  occ. eigenvalues --  -26.31121  -1.60128  -0.76414  -0.64895  -0.64895
 Alpha virt. eigenvalues --    0.03524   0.19324   0.24473   0.24473   0.25454
 Alpha virt. eigenvalues --    0.36049   0.40019   0.40019   0.65399   0.93219
 Alpha virt. eigenvalues --    1.34765   1.34765   1.43035   1.43035   1.62366

 Mulliken charges:
               1
     1  H    0.290312
     2  F   -0.290312
 Sum of Mulliken charges =  -0.00000

 Dipole moment (field-independent basis, Debye):
    X=              0.0000    Y=             -0.0000    Z=             -1.8315  Tot=              1.8315
 Quadrupole moment (field-independent basis, Debye-Ang):
   XX=             -5.9728   YY=             -5.9728   ZZ=             -3.7498
   XY=             -0.0000   XZ=             -0.0000   YZ=             -0.0000

  Exact polarizability:   4.366   0.000   4.366   0.000   0.000   6.395
 Approx polarizability:   3.175  -0.000   3.175   0.000   0.000   5.033

                      1
                     SG
 Frequencies --   4082.3292
 Red. masses --      1.0583
 Frc consts  --     10.3915
 IR Inten    --    116.0821

 - Thermochemistry -
 -------------------
 Temperature   298.150 Kelvin.  Pressure   1.00000 Atm.
 Atom     1 has atomic number  1 and mass   1.00783

 Molecular mass:    20.00623 amu.
 Principal axes and moments of inertia in atomic units:
                           1         2         3
     Eigenvalues --     0.00000   2.92308   2.92308
           X            0.00000  -0.00000   1.00000
           Y            0.00000   1.00000   0.00000
           Z            1.00000   0.00000   0.00000
 This molecule is a prolate symmetric top.
 Rotational symmetry number  1.
 Rotational temperature (Kelvin)     29.63105
 Rotational constant (GHZ):         617.410771
 Zero-point vibrational energy      24417.8 (Joules/Mol)
                                    5.83598 (Kcal/Mol)
 Vibrational temperatures:   5873.56
          (Kelvin)

 Zero-point correction=                           0.009300 (Hartree/Particle)
 Thermal correction to Energy=                    0.011661
 Thermal correction to Enthalpy=                  0.012605
 Thermal correction to Gibbs Free Energy=        -0.007112
 Sum of electronic and zero-point Energies=           -100.246504
 Sum of electronic and thermal Energies=              -100.244144
 Sum of electronic and thermal Enthalpies=            -100.243200
 Sum of electronic and thermal Free Energies=         -100.262916

                     E (Thermal)             CV                S
                      KCal/Mol        Cal/Mol-Kelvin    Cal/Mol-Kelvin
 Total                    7.317              4.968             41.497
 Electronic               0.000              0.000              0.000
 Translational            0.889              2.981             34.922
 Rotational               0.592              1.987              6.575
 Vibrational              5.836              0.000              0.000

 Optimization completed.
    -- Stationary point found.
 Normal termination of Gaussian 16 at Tue Aug  4 15:33:04 2020.
