 Gaussian 16, Revision C.01,
 Gaussian 16:  EM64L-G16RevC.01  3-Jul-2019

 ----------------------------------------------
 # MP2/aug-cc-pVDZ opt freq=(vibrot,anharmonic)
 ----------------------------------------------

 ----
 blah
 ----
 Symbolic Z-matrix:
 Charge =  0 Multiplicity = 1

 SCF Done:  E(RHF) =  -279.495012684     A.U. after   15 cycles
 E2 =    -0.7885413867D+00 EUMP2 =    -0.28028355407059D+03
 SCF Done:  E(RHF) =  -279.493114024     A.U. after   12 cycles
 E2 =    -0.7915369881D+00 EUMP2 =    -0.28028465101186D+03
 SCF Done:  E(RHF) =  -279.491862778     A.U. after   12 cycles
 E2 =    -0.7929677259D+00 EUMP2 =    -0.28028483050355D+03
 SCF Done:  E(RHF) =  -279.491447899     A.U. after   11 cycles
 E2 =    -0.7934311381D+00 EUMP2 =    -0.28028487903696D+03
 SCF Done:  E(RHF) =  -279.491519517     A.U. after   10 cycles
 E2 =    -0.7933657177D+00 EUMP2 =    -0.28028488523514D+03
 SCF Done:  E(RHF) =  -279.491599495     A.U. after    9 cycles
 E2 =    -0.7932861021D+00 EUMP2 =    -0.28028488559700D+03
 Optimization completed.
    -- Stationary point found.
 Normal termination of Gaussian 16 at Sun Mar 23 12:17:07 2025.

 ----------------------------------------------------------------------
 #N Geom=AllCheck Guess=TCheck SCRF=Check GenChk RMP2(FC)/Aug-CC-pVDZ F
 req
 ----------------------------------------------------------------------

 Structure from the checkpoint file:  "/scr/Gau-22859.chk"
 ----
 blah
 ----
 Charge =  0 Multiplicity = 1

                         Standard orientation:
 ---------------------------------------------------------------------
 Center     Atomic      Atomic             Coordinates (Angstroms)
 Number     Number       Type             X           Y           Z
 ---------------------------------------------------------------------
      1          8           0       -1.130718   -0.569742    0.000002
      2          7           0        0.147573    0.040358    0.000001
      3          8           0        1.062762   -0.753110   -0.000001
      4          8           0        0.154632    1.261943    0.000000
      5          1           0       -1.726418    0.204767   -0.000014
 ---------------------------------------------------------------------

 SCF Done:  E(RHF) =  -279.491599495     A.U. after    1 cycles
 E2 =    -0.7932860989D+00 EUMP2 =    -0.28028488559381D+03
 E2 =    -0.7932860989D+00 EUMP2 =    -0.28028488559381D+03
 SCF Done:  E(RHF) =  -279.491595314     A.U. after   10 cycles
 E2 =    -0.7932886693D+00 EUMP2 =    -0.28028488398281D+03
 E2 =    -0.7932886693D+00 EUMP2 =    -0.28028488398281D+03
 SCF Done:  E(RHF) =  -279.491595299     A.U. after   10 cycles
 E2 =    -0.7932886741D+00 EUMP2 =    -0.28028488397302D+03
 E2 =    -0.7932886741D+00 EUMP2 =    -0.28028488397302D+03
 SCF Done:  E(RHF) =  -279.491622701     A.U. after   10 cycles
 E2 =    -0.7932608592D+00 EUMP2 =    -0.28028488356013D+03
 E2 =    -0.7932608592D+00 EUMP2 =    -0.28028488356013D+03
 E2 =    -0.7933126996D+00 EUMP2 =    -0.28028488309948D+03
 E2 =    -0.7933126996D+00 EUMP2 =    -0.28028488309948D+03
 E2 =    -0.7931377999D+00 EUMP2 =    -0.28028488301232D+03
 E2 =    -0.7931377999D+00 EUMP2 =    -0.28028488301232D+03
 E2 =    -0.7934346328D+00 EUMP2 =    -0.28028488240263D+03
 E2 =    -0.7934346328D+00 EUMP2 =    -0.28028488240263D+03
 SCF Done:  E(RHF) =  -279.491199422     A.U. after   10 cycles
 E2 =    -0.7936809713D+00 EUMP2 =    -0.28028488039284D+03
 E2 =    -0.7936809713D+00 EUMP2 =    -0.28028488039284D+03
 SCF Done:  E(RHF) =  -279.491987169     A.U. after   10 cycles
 E2 =    -0.7928931898D+00 EUMP2 =    -0.28028488035845D+03
 E2 =    -0.7928931898D+00 EUMP2 =    -0.28028488035845D+03
 SCF Done:  E(RHF) =  -279.491997493     A.U. after   11 cycles
 E2 =    -0.7928762086D+00 EUMP2 =    -0.28028487370185D+03
 E2 =    -0.7928762086D+00 EUMP2 =    -0.28028487370185D+03
 SCF Done:  E(RHF) =  -279.491177207     A.U. after   11 cycles
 E2 =    -0.7936966998D+00 EUMP2 =    -0.28028487390689D+03
 E2 =    -0.7936966998D+00 EUMP2 =    -0.28028487390689D+03
 SCF Done:  E(RHF) =  -279.491549240     A.U. after   10 cycles
 E2 =    -0.7933237317D+00 EUMP2 =    -0.28028487297188D+03
 E2 =    -0.7933237317D+00 EUMP2 =    -0.28028487297188D+03
 SCF Done:  E(RHF) =  -279.491617980     A.U. after   10 cycles
 E2 =    -0.7932556351D+00 EUMP2 =    -0.28028487361556D+03
 E2 =    -0.7932556351D+00 EUMP2 =    -0.28028487361556D+03
 SCF Done:  E(RHF) =  -279.491697667     A.U. after   10 cycles
 E2 =    -0.7931651074D+00 EUMP2 =    -0.28028486277452D+03
 E2 =    -0.7931651074D+00 EUMP2 =    -0.28028486277452D+03
 SCF Done:  E(RHF) =  -279.491466720     A.U. after   10 cycles
 E2 =    -0.7933948725D+00 EUMP2 =    -0.28028486159284D+03
 E2 =    -0.7933948725D+00 EUMP2 =    -0.28028486159284D+03
 SCF Done:  E(RHF) =  -279.491984901     A.U. after    9 cycles
 E2 =    -0.7928061847D+00 EUMP2 =    -0.28028479108564D+03
 E2 =    -0.7928061847D+00 EUMP2 =    -0.28028479108564D+03
 SCF Done:  E(RHF) =  -279.491025979     A.U. after    9 cycles
 E2 =    -0.7937686689D+00 EUMP2 =    -0.28028479464772D+03
 E2 =    -0.7937686689D+00 EUMP2 =    -0.28028479464772D+03

 Alpha  occ. eigenvalues --  -20.70475 -20.66107 -20.65871 -15.94902  -1.68289
 Alpha  occ. eigenvalues --   -1.46511  -1.44360  -0.95882  -0.82795  -0.78856
 Alpha  occ. eigenvalues --   -0.78628  -0.70178  -0.58548  -0.54934  -0.53464
 Alpha  occ. eigenvalues --   -0.50005
 Alpha virt. eigenvalues --    0.02952   0.06918   0.10666   0.11734   0.15414
 Alpha virt. eigenvalues --    0.15691   0.17491   0.19033   0.21991   0.22333
 Alpha virt. eigenvalues --    0.23557   0.26096   0.27450   0.29173   0.30041

 Mulliken charges:
               1
     1  O   -0.430141
     2  N    1.158389
     3  O   -0.456906
     4  O   -0.474287
     5  H    0.202946
 Sum of Mulliken charges =  -0.00000

 Dipole moment (field-independent basis, Debye):
    X=             -2.0850    Y=              0.6521    Z=             -0.0000  Tot=              2.1846
 Quadrupole moment (field-independent basis, Debye-Ang):
   XX=            -20.1878   YY=            -25.4494   ZZ=            -21.7561
   XY=             -1.4342   XZ=              0.0001   YZ=             -0.0000

  Exact polarizability:      30.891      -2.284      31.986       0.000      -0.000      16.307
 Approx polarizability:      24.795      -3.652      29.281       0.000      -0.000      15.055

                      1                      2                      3
                      A                      A                      A
 Frequencies --    487.0247               578.0970               652.8666
 Red. masses --      1.1049                 5.4993                13.2307
 Frc consts  --      0.1544                 1.0828                 3.3226
 IR Inten    --    114.6463                 7.9894                17.5713

                      4                      5                      6
                      A                      A                      A
 Frequencies --    762.5730               878.2574              1320.5543
 Red. masses --     13.8621                14.9493                14.5389
 Frc consts  --      4.7494                 6.7938                14.9381
 IR Inten    --      4.7193               207.4039               197.6238

                      7                      8                      9
                      A                      A                      A
 Frequencies --   1348.6271              1861.0866              3703.6130
 Red. masses --      1.2359                 9.5194                 1.0658
 Frc consts  --      1.3244                19.4264                 8.6138
 IR Inten    --    105.8481               258.9437                90.3552

 - Thermochemistry -
 -------------------
 Temperature   298.150 Kelvin.  Pressure   1.00000 Atm.
 Atom     1 has atomic number  8 and mass  15.99491

 Molecular mass:    62.99564 amu.
 Principal axes and moments of inertia in atomic units:
                           1         2         3
     Eigenvalues --   141.94169 150.74455 292.68624
           X            0.98928  -0.14602   0.00000
           Y            0.14602   0.98928  -0.00000
           Z           -0.00000   0.00000   1.00000
 This molecule is an asymmetric top.
 Rotational symmetry number  1.
 Rotational temperatures (Kelvin)      0.61021     0.57457     0.29593
 Rotational constants (GHZ):          12.71467    11.97218     6.16613
 Zero-point vibrational energy      69339.7 (Joules/Mol)
                                   16.57260 (Kcal/Mol)
 Warning -- explicit consideration of   2 degrees of freedom as
           vibrations may cause significant error
 Vibrational temperatures:    700.72   831.75   939.33  1097.17  1263.62
          (Kelvin)           1899.98  1940.37  2677.69  5328.67

 Zero-point correction=                           0.026410 (Hartree/Particle)
 Thermal correction to Energy=                    0.029951
 Thermal correction to Enthalpy=                  0.030895
 Thermal correction to Gibbs Free Energy=         0.000638
 Sum of electronic and zero-point Energies=           -280.258475
 Sum of electronic and thermal Energies=              -280.254934
 Sum of electronic and thermal Enthalpies=            -280.253990
 Sum of electronic and thermal Free Energies=         -280.284248

                     E (Thermal)             CV                S
                      KCal/Mol        Cal/Mol-Kelvin    Cal/Mol-Kelvin
 Total                   18.795             10.770             63.683
 Electronic               0.000              0.000              0.000
 Translational            0.889              2.981             38.341
 Rotational               0.889              2.981             23.353
 Vibrational             17.017              4.809              1.989
 Vibration     1          0.843              1.279              0.691
 Vibration     2          0.935              1.079              0.489

 ## DEPERTURBED TRANSITIONS MOMENTS ##

 Electric dipole : Fundamental Bands
 ------------------------------------------------------------------------

 ## AFTER VARIATIONAL CORRECTION

 Electric dipole : Fundamental Bands
 ------------------------------------------------------------------------

 Optimization completed.
    -- Stationary point found.
 Normal termination of Gaussian 16 at Sun Mar 23 12:25:48 2025.
