 Gaussian 16, Revision A.03,
 Gaussian 16:  ES64L-G16RevA.03 25-Dec-2016

 ----------------------------------------------
 # mp2/aug-cc-pVTZ opt freq=(vibrot,anharmonic)
 ----------------------------------------------

 ----
 HNO3
 ----
 Symbolic Z-matrix:
 Charge =  0 Multiplicity = 1

 SCF Done:  E(RHF) =  -279.561079947     A.U. after   14 cycles
 E2 =    -0.9532486259D+00 EUMP2 =    -0.28051432857259D+03
 Optimization completed.
    -- Stationary point found.
 Normal termination of Gaussian 16 at Thu Jun 24 14:45:05 2021.

 ----------------------------------------------------------------------
 #N Geom=AllCheck Guess=TCheck SCRF=Check GenChk RMP2(FC)/Aug-CC-pVTZ F
 req
 ----------------------------------------------------------------------

 Structure from the checkpoint file:  "hno3_mp2_avtz_opt_anharm.chk"
 ----
 HNO3
 ----
 Charge =  0 Multiplicity = 1

                         Standard orientation:
 ---------------------------------------------------------------------
 Center     Atomic      Atomic             Coordinates (Angstroms)
 Number     Number       Type             X           Y           Z
 ---------------------------------------------------------------------
      1          1           0        0.639839   -1.604133    0.000000
      2          8           0       -0.258473   -1.229985    0.000000
      3          7           0        0.000000    0.152128    0.000000
      4          8           0        1.171162    0.467775    0.000000
      5          8           0       -0.992668    0.829615    0.000000
 ---------------------------------------------------------------------

 SCF Done:  E(RHF) =  -279.561079947     A.U. after    1 cycles
 E2 =    -0.9532486226D+00 EUMP2 =    -0.28051432856936D+03
 E2 =    -0.9532486226D+00 EUMP2 =    -0.28051432856936D+03
 SCF Done:  E(RHF) =  -279.561075891     A.U. after   10 cycles
 E2 =    -0.9532510734D+00 EUMP2 =    -0.28051432696437D+03
 E2 =    -0.9532510734D+00 EUMP2 =    -0.28051432696437D+03
 SCF Done:  E(RHF) =  -279.561075891     A.U. after   10 cycles
 E2 =    -0.9532510734D+00 EUMP2 =    -0.28051432696436D+03
 E2 =    -0.9532510734D+00 EUMP2 =    -0.28051432696436D+03
 SCF Done:  E(RHF) =  -279.561093116     A.U. after    8 cycles
 E2 =    -0.9532330229D+00 EUMP2 =    -0.28051432613940D+03
 E2 =    -0.9532330229D+00 EUMP2 =    -0.28051432613940D+03
 SCF Done:  E(RHF) =  -279.561060625     A.U. after    8 cycles
 E2 =    -0.9532656561D+00 EUMP2 =    -0.28051432628121D+03
 E2 =    -0.9532656561D+00 EUMP2 =    -0.28051432628121D+03
 SCF Done:  E(RHF) =  -279.561196058     A.U. after    8 cycles
 E2 =    -0.9531295284D+00 EUMP2 =    -0.28051432558601D+03
 E2 =    -0.9531295284D+00 EUMP2 =    -0.28051432558601D+03
 SCF Done:  E(RHF) =  -279.560957431     A.U. after    8 cycles
 E2 =    -0.9533681129D+00 EUMP2 =    -0.28051432554367D+03
 E2 =    -0.9533681129D+00 EUMP2 =    -0.28051432554367D+03
 SCF Done:  E(RHF) =  -279.561074031     A.U. after    9 cycles
 E2 =    -0.9532504628D+00 EUMP2 =    -0.28051432449425D+03
 E2 =    -0.9532504628D+00 EUMP2 =    -0.28051432449425D+03
 SCF Done:  E(RHF) =  -279.561074031     A.U. after    9 cycles
 E2 =    -0.9532504628D+00 EUMP2 =    -0.28051432449425D+03
 E2 =    -0.9532504628D+00 EUMP2 =    -0.28051432449425D+03
 SCF Done:  E(RHF) =  -279.560698352     A.U. after    9 cycles
 E2 =    -0.9536248704D+00 EUMP2 =    -0.28051432322197D+03
 E2 =    -0.9536248704D+00 EUMP2 =    -0.28051432322197D+03
 SCF Done:  E(RHF) =  -279.561448604     A.U. after    9 cycles
 E2 =    -0.9528744807D+00 EUMP2 =    -0.28051432308439D+03
 E2 =    -0.9528744807D+00 EUMP2 =    -0.28051432308439D+03
 SCF Done:  E(RHF) =  -279.561436937     A.U. after   10 cycles
 E2 =    -0.9528799260D+00 EUMP2 =    -0.28051431686282D+03
 E2 =    -0.9528799260D+00 EUMP2 =    -0.28051431686282D+03
 SCF Done:  E(RHF) =  -279.560698142     A.U. after   10 cycles
 E2 =    -0.9536187143D+00 EUMP2 =    -0.28051431685659D+03
 E2 =    -0.9536187143D+00 EUMP2 =    -0.28051431685659D+03
 SCF Done:  E(RHF) =  -279.561027332     A.U. after   10 cycles
 E2 =    -0.9532889832D+00 EUMP2 =    -0.28051431631551D+03
 E2 =    -0.9532889832D+00 EUMP2 =    -0.28051431631551D+03
 SCF Done:  E(RHF) =  -279.561100967     A.U. after   10 cycles
 E2 =    -0.9532154454D+00 EUMP2 =    -0.28051431641231D+03
 E2 =    -0.9532154454D+00 EUMP2 =    -0.28051431641231D+03
 SCF Done:  E(RHF) =  -279.560945579     A.U. after   10 cycles
 E2 =    -0.9533600409D+00 EUMP2 =    -0.28051430561989D+03
 E2 =    -0.9533600409D+00 EUMP2 =    -0.28051430561989D+03
 SCF Done:  E(RHF) =  -279.561178707     A.U. after   10 cycles
 E2 =    -0.9531267287D+00 EUMP2 =    -0.28051430543623D+03
 E2 =    -0.9531267287D+00 EUMP2 =    -0.28051430543623D+03
 SCF Done:  E(RHF) =  -279.560532220     A.U. after    9 cycles
 E2 =    -0.9537050997D+00 EUMP2 =    -0.28051423731928D+03
 E2 =    -0.9537050997D+00 EUMP2 =    -0.28051423731928D+03
 SCF Done:  E(RHF) =  -279.561438326     A.U. after    9 cycles
 E2 =    -0.9527945820D+00 EUMP2 =    -0.28051423290843D+03
 E2 =    -0.9527945820D+00 EUMP2 =    -0.28051423290843D+03

 Alpha  occ. eigenvalues --  -20.69311 -20.64886 -20.64599 -15.94225  -1.68674
 Alpha  occ. eigenvalues --   -1.46604  -1.44609  -0.95805  -0.82975  -0.79198
 Alpha  occ. eigenvalues --   -0.78885  -0.70414  -0.58704  -0.54967  -0.53488
 Alpha  occ. eigenvalues --   -0.50035
 Alpha virt. eigenvalues --    0.02439   0.07388   0.09026   0.09685   0.12927
 Alpha virt. eigenvalues --    0.13015   0.13975   0.15807   0.17789   0.18148
 Alpha virt. eigenvalues --    0.18474   0.22545   0.23091   0.24754   0.25518

 Mulliken charges:
               1
     1  H    0.246524
     2  O   -0.303014
     3  N    0.869111
     4  O   -0.406795
     5  O   -0.405825
 Sum of Mulliken charges =  -0.00000

 Dipole moment (field-independent basis, Debye):
    X=              1.1249    Y=             -1.8311    Z=             -0.0000  Tot=              2.1490
 Quadrupole moment (field-independent basis, Debye-Ang):
   XX=            -24.1838   YY=            -21.0419   ZZ=            -21.4013
   XY=             -2.4664   XZ=             -0.0000   YZ=              0.0000

  Exact polarizability:  32.725  -1.610  29.740  -0.000   0.000  16.683
 Approx polarizability:  30.135  -1.968  23.095  -0.000  -0.000  15.165

                      1                      2                      3
                     A"                     A'                     A'
 Frequencies --    484.8652               589.6681               665.8213
 Red. masses --      1.1044                 5.4503                13.0842
 Frc consts  --      0.1530                 1.1166                 3.4175
 IR Inten    --    114.0703                 8.8075                12.3750

                      4                      5                      6
                     A"                     A'                     A'
 Frequencies --    775.4867               894.5508              1315.9250
 Red. masses --     13.9327                14.9027                13.4480
 Frc consts  --      4.9367                 7.0263                13.7205
 IR Inten    --      5.2937               202.7588               188.1731

                      7                      8                      9
                     A'                     A'                     A'
 Frequencies --   1343.4341              1846.2253              3718.0704
 Red. masses --      1.2539                 9.2515                 1.0656
 Frc consts  --      1.3334                18.5794                 8.6790
 IR Inten    --    123.7758               275.5432                97.4881

 - Thermochemistry -
 -------------------
 Temperature   298.150 Kelvin.  Pressure   1.00000 Atm.
 Atom     1 has atomic number  1 and mass   1.00783

 Molecular mass:    62.99564 amu.
 Principal axes and moments of inertia in atomic units:
                           1         2         3
     Eigenvalues --   139.72542 148.66984 288.39526
           X           -0.13827   0.99040   0.00000
           Y            0.99040   0.13827   0.00000
           Z           -0.00000   0.00000   1.00000
 This molecule is an asymmetric top.
 Rotational symmetry number  1.
 Rotational temperatures (Kelvin)      0.61989     0.58259     0.30033
 Rotational constants (GHZ):          12.91634    12.13926     6.25787
 Zero-point vibrational energy      69587.1 (Joules/Mol)
                                   16.63171 (Kcal/Mol)
 Warning -- explicit consideration of   2 degrees of freedom as
           vibrations may cause significant error
 Vibrational temperatures:    697.61   848.40   957.97  1115.75  1287.06
          (Kelvin)           1893.32  1932.90  2656.31  5349.47

 Zero-point correction=                           0.026504 (Hartree/Particle)
 Thermal correction to Energy=                    0.030027
 Thermal correction to Enthalpy=                  0.030971
 Thermal correction to Gibbs Free Energy=         0.000760
 Sum of electronic and zero-point Energies=           -280.487824
 Sum of electronic and thermal Energies=              -280.484301
 Sum of electronic and thermal Enthalpies=            -280.483357
 Sum of electronic and thermal Free Energies=         -280.513569

                     E (Thermal)             CV                S
                      KCal/Mol        Cal/Mol-Kelvin    Cal/Mol-Kelvin
 Total                   18.842             10.685             63.585
 Electronic               0.000              0.000              0.000
 Translational            0.889              2.981             38.341
 Rotational               0.889              2.981             23.309
 Vibrational             17.065              4.723              1.936
 Vibration     1          0.841              1.284              0.697
 Vibration     2          0.947              1.054              0.468

 ## DEPERTURBED TRANSITIONS MOMENTS ##

 Electric dipole : Fundamental Bands
 ------------------------------------------------------------------------

 ## AFTER VARIATIONAL CORRECTION

 Electric dipole : Fundamental Bands
 ------------------------------------------------------------------------

 Optimization completed.
    -- Stationary point found.
 Normal termination of Gaussian 16 at Thu Jun 24 16:43:39 2021.
