 Gaussian 16, Revision A.03,
 Gaussian 16:  ES64L-G16RevA.03 25-Dec-2016

 ---------------------------------------------
 # MP2/aug-cc-pVDZ Opt Freq(vibrot,anharmonic)
 ---------------------------------------------

 ---
 ho2
 ---
 Symbolic Z-matrix:
 Charge =  0 Multiplicity = 2

 SCF Done:  E(UHF) =  -149.485736040     A.U. after   14 cycles
 E2 =    -0.3302051120D+00 EUMP2 =    -0.14981594115247D+03
 SCF Done:  E(UHF) =  -149.915574463     A.U. after   15 cycles
 E2 =    -0.3413606473D+00 EUMP2 =    -0.15025693511038D+03
 SCF Done:  E(UHF) =  -150.149847735     A.U. after   17 cycles
 E2 =    -0.3635630293D+00 EUMP2 =    -0.15051341076431D+03
 SCF Done:  E(UHF) =  -150.095493223     A.U. after   75 cycles
 E2 =    -0.3876666876D+00 EUMP2 =    -0.15048315991074D+03
 SCF Done:  E(UHF) =  -150.191829038     A.U. after   16 cycles
 E2 =    -0.3674746232D+00 EUMP2 =    -0.15055930366147D+03
 SCF Done:  E(UHF) =  -150.195357956     A.U. after   14 cycles
 E2 =    -0.3663660033D+00 EUMP2 =    -0.15056172395936D+03
 SCF Done:  E(UHF) =  -150.196597574     A.U. after   14 cycles
 E2 =    -0.3673095260D+00 EUMP2 =    -0.15056390710024D+03
 SCF Done:  E(UHF) =  -150.200864370     A.U. after   16 cycles
 E2 =    -0.3669608511D+00 EUMP2 =    -0.15056782522083D+03
 SCF Done:  E(UHF) =  -150.201976409     A.U. after   15 cycles
 E2 =    -0.3664746119D+00 EUMP2 =    -0.15056845102084D+03
 SCF Done:  E(UHF) =  -150.202349128     A.U. after   13 cycles
 E2 =    -0.3662040324D+00 EUMP2 =    -0.15056855316028D+03
 SCF Done:  E(UHF) =  -150.202469844     A.U. after   12 cycles
 E2 =    -0.3660921590D+00 EUMP2 =    -0.15056856200290D+03
 SCF Done:  E(UHF) =  -150.202508880     A.U. after   11 cycles
 E2 =    -0.3660538770D+00 EUMP2 =    -0.15056856275733D+03
 Optimization completed.
    -- Stationary point found.

 1\1\GINC-N2288\FOpt\UMP2-FC\Aug-CC-pVDZ\H1O2(2)\GDS001\15-Aug-2020\0\\
 # MP2/aug-cc-pVDZ Opt Freq(vibrot,anharmonic)\\ho2\\0,2\O,0.5036474047
 ,0.942725352,-0.9087406086\O,-0.0579247136,2.1143251752,-1.151346137\H
 ,0.2257765199,2.6811857141,-0.4062643455\\Version=ES64L-G16RevA.03\Sta
 te=2-A"\HF=-150.2025089\MP2=-150.5685628\PUHF=-150.2070245\PMP2-0=-150
 .5713579\S2=0.762687\S2-1=0.752966\S2A=0.750118\RMSD=6.547e-09\RMSF=3.
 890e-05\Dipole=0.0518102,0.711433,0.4626614\PG=CS [SG(H1O2)]\\@

 Normal termination of Gaussian 16 at Sat Aug 15 13:43:14 2020.

 ----------------------------------------------------------------------
 #N Geom=AllCheck Guess=TCheck SCRF=Check GenChk UMP2(FC)/Aug-CC-pVDZ F
 req
 ----------------------------------------------------------------------

 Structure from the checkpoint file:  "ho2.chk"
 ---
 ho2
 ---
 Charge =  0 Multiplicity = 2

                         Standard orientation:
 ---------------------------------------------------------------------
 Center     Atomic      Atomic             Coordinates (Angstroms)
 Number     Number       Type             X           Y           Z
 ---------------------------------------------------------------------
      1          8           0        0.055707   -0.714141    0.000000
      2          8           0        0.055707    0.607550   -0.000000
      3          1           0       -0.891315    0.852731   -0.000000
 ---------------------------------------------------------------------

 SCF Done:  E(UHF) =  -150.202508880     A.U. after    1 cycles
 E2 =    -0.3660538765D+00 EUMP2 =    -0.15056856275685D+03
 E2 =    -0.3660538765D+00 EUMP2 =    -0.15056856275685D+03
 SCF Done:  E(UHF) =  -150.202384729     A.U. after   13 cycles
 E2 =    -0.3661680438D+00 EUMP2 =    -0.15056855277261D+03
 E2 =    -0.3661680438D+00 EUMP2 =    -0.15056855277261D+03
 SCF Done:  E(UHF) =  -150.202614092     A.U. after   13 cycles
 E2 =    -0.3659392661D+00 EUMP2 =    -0.15056855335790D+03
 E2 =    -0.3659392661D+00 EUMP2 =    -0.15056855335790D+03
 SCF Done:  E(UHF) =  -150.202504497     A.U. after   13 cycles
 E2 =    -0.3660434954D+00 EUMP2 =    -0.15056854799200D+03
 E2 =    -0.3660434954D+00 EUMP2 =    -0.15056854799200D+03
 SCF Done:  E(UHF) =  -150.202475840     A.U. after   13 cycles
 E2 =    -0.3660732539D+00 EUMP2 =    -0.15056854909393D+03
 E2 =    -0.3660732539D+00 EUMP2 =    -0.15056854909393D+03
 SCF Done:  E(UHF) =  -150.201847545     A.U. after   13 cycles
 E2 =    -0.3666281230D+00 EUMP2 =    -0.15056847566764D+03
 E2 =    -0.3666281230D+00 EUMP2 =    -0.15056847566764D+03
 SCF Done:  E(UHF) =  -150.202987251     A.U. after   12 cycles
 E2 =    -0.3654830733D+00 EUMP2 =    -0.15056847032418D+03
 E2 =    -0.3654830733D+00 EUMP2 =    -0.15056847032418D+03

 Alpha  occ. eigenvalues --  -20.69729 -20.68317  -1.58873  -1.21305  -0.77888
 Alpha  occ. eigenvalues --   -0.75926  -0.68066  -0.52674  -0.52429
 Alpha virt. eigenvalues --    0.03644   0.12202   0.16780   0.18676   0.21799
 Alpha virt. eigenvalues --    0.23589   0.23796   0.24098   0.33440   0.34697
 Alpha virt. eigenvalues --    0.38611   0.44028   0.47410   0.61570   0.84578

  Beta  occ. eigenvalues --  -20.67517 -20.65587  -1.52657  -1.11022  -0.75849
  Beta  occ. eigenvalues --   -0.65526  -0.57332  -0.48646
  Beta virt. eigenvalues --    0.03672   0.09711   0.12528   0.16831   0.20120
  Beta virt. eigenvalues --    0.22001   0.23630   0.24263   0.28238   0.33502
  Beta virt. eigenvalues --    0.37274   0.38746   0.44848   0.47771   0.61799

 Mulliken charges and spin densities:
               1          2
     1  O   -0.142618   0.741849
     2  O   -0.067717   0.290412
     3  H    0.210335  -0.032261
 Sum of Mulliken charges =  -0.00000   1.00000

 Dipole moment (field-independent basis, Debye):
    X=             -1.6937    Y=              1.3259    Z=              0.0000  Tot=              2.1510
 Quadrupole moment (field-independent basis, Debye-Ang):
   XX=            -10.2801   YY=            -11.0416   ZZ=            -11.4047
   XY=             -1.6707   XZ=              0.0000   YZ=             -0.0000

  Exact polarizability:  10.900  -1.402  18.323   0.000   0.000   9.225
 Approx polarizability:   8.734  -0.755  12.819  -0.000   0.000   7.466

                      1                      2                      3
                     A'                     A'                     A'
 Frequencies --   1197.5323              1450.2982              3643.9284
 Red. masses --     11.5974                 1.1480                 1.0681
 Frc consts  --      9.7991                 1.4227                 8.3559
 IR Inten    --     94.2107                32.0305                42.0654

 - Thermochemistry -
 -------------------
 Temperature   298.150 Kelvin.  Pressure   1.00000 Atm.
 Atom     1 has atomic number  8 and mass  15.99491

 Molecular mass:    32.99765 amu.
 Principal axes and moments of inertia in atomic units:
                           1         2         3
     Eigenvalues --     2.94924  52.93363  55.88286
           X           -0.06000   0.99820   0.00000
           Y            0.99820   0.06000   0.00000
           Z           -0.00000  -0.00000   1.00000
 This molecule is an asymmetric top.
 Rotational symmetry number  1.
 Rotational temperatures (Kelvin)     29.36826     1.63627     1.54992
 Rotational constants (GHZ):         611.93524    34.09442    32.29508
 Zero-point vibrational energy      37633.1 (Joules/Mol)
                                    8.99452 (Kcal/Mol)
 Vibrational temperatures:   1722.98  2086.66  5242.80
          (Kelvin)

 Zero-point correction=                           0.014334 (Hartree/Particle)
 Thermal correction to Energy=                    0.017189
 Thermal correction to Enthalpy=                  0.018133
 Thermal correction to Gibbs Free Energy=        -0.007840
 Sum of electronic and zero-point Energies=           -150.554229
 Sum of electronic and thermal Energies=              -150.551374
 Sum of electronic and thermal Enthalpies=            -150.550429
 Sum of electronic and thermal Free Energies=         -150.576403

                     E (Thermal)             CV                S
                      KCal/Mol        Cal/Mol-Kelvin    Cal/Mol-Kelvin
 Total                   10.786              6.257             54.665
 Electronic               0.000              0.000              1.377
 Translational            0.889              2.981             36.413
 Rotational               0.889              2.981             16.819
 Vibrational              9.009              0.296              0.056

 Optimization completed.
    -- Stationary point found.

 1\1\GINC-N2288\Freq\UMP2-FC\Aug-CC-pVDZ\H1O2(2)\GDS001\15-Aug-2020\0\\
 #N Geom=AllCheck Guess=TCheck SCRF=Check GenChk UMP2(FC)/Aug-CC-pVDZ F
 req\\ho2\\0,2\O,0.5036474047,0.942725352,-0.9087406086\O,-0.0579247136
 ,2.1143251752,-1.151346137\H,0.2257765199,2.6811857141,-0.4062643455\\
 Version=ES64L-G16RevA.03\State=2-A"\HF=-150.2025089\MP2=-150.5685628\P
 UHF=-150.2070245\PMP2-0=-150.5713579\S2=0.762687\S2-1=0.752966\S2A=0.7
 50118\RMSD=1.429e-09\RMSF=3.889e-05\ZeroPoint=0.0143337\Thermal=0.0171
 892\Dipole=0.0518102,0.711433,0.4626614\DipoleDeriv=-0.0214218,-0.2798

 Normal termination of Gaussian 16 at Sat Aug 15 13:44:46 2020.
