 Gaussian 16, Revision A.03,
 Gaussian 16:  ES64L-G16RevA.03 25-Dec-2016

 ----------------------------------------------
 # mp2/aug-cc-pVTZ opt freq=(vibrot,anharmonic)
 ----------------------------------------------

 ----
 HO2*
 ----
 Symbolic Z-matrix:
 Charge =  0 Multiplicity = 2

 SCF Done:  E(UHF) =  -150.221103855     A.U. after   22 cycles
 E2 =    -0.4433375237D+00 EUMP2 =    -0.15066444137856D+03
 SCF Done:  E(UHF) =  -150.240244959     A.U. after   16 cycles
 E2 =    -0.4520025772D+00 EUMP2 =    -0.15069224753603D+03
 SCF Done:  E(UHF) =  -150.238685582     A.U. after   14 cycles
 E2 =    -0.4524571943D+00 EUMP2 =    -0.15069114277581D+03
 SCF Done:  E(UHF) =  -150.240116795     A.U. after   13 cycles
 E2 =    -0.4525005953D+00 EUMP2 =    -0.15069261739029D+03
 SCF Done:  E(UHF) =  -150.240087632     A.U. after   11 cycles
 E2 =    -0.4525302933D+00 EUMP2 =    -0.15069261792531D+03
 Optimization completed.
    -- Stationary point found.

 1\1\GINC-N2295\FOpt\UMP2-FC\Aug-CC-pVTZ\H1O2(2)\GDS001\24-Jun-2021\0\\
 # mp2/aug-cc-pVTZ opt freq=(vibrot,anharmonic)\\HO2*\\0,2\O,0.03869698
 15,0.,0.1182703249\O,-0.034760539,0.,1.4293029248\H,0.8917325575,0.,1.
 7290937503\\Version=ES64L-G16RevA.03\State=2-A"\HF=-150.2400876\MP2=-1
 50.6926179\PUHF=-150.2450042\PMP2-0=-150.6956374\S2=0.763205\S2-1=0.75
 2956\S2A=0.750127\RMSD=3.427e-09\RMSF=4.569e-05\Dipole=0.6311069,0.,0.
 5677112\PG=CS [SG(H1O2)]\\@

 Normal termination of Gaussian 16 at Thu Jun 24 08:15:10 2021.

 ----------------------------------------------------------------------
 #N Geom=AllCheck Guess=TCheck SCRF=Check GenChk UMP2(FC)/Aug-CC-pVTZ F
 req
 ----------------------------------------------------------------------

 Structure from the checkpoint file:  "ho2_mp2_avtz_opt_anharm.chk"
 ----
 HO2*
 ----
 Charge =  0 Multiplicity = 2

                         Standard orientation:
 ---------------------------------------------------------------------
 Center     Atomic      Atomic             Coordinates (Angstroms)
 Number     Number       Type             X           Y           Z
 ---------------------------------------------------------------------
      1          8           0        0.055401    0.709723    0.000000
      2          8           0        0.055401   -0.603366   -0.000000
      3          1           0       -0.886412   -0.850857   -0.000000
 ---------------------------------------------------------------------

 SCF Done:  E(UHF) =  -150.240087632     A.U. after    1 cycles
 E2 =    -0.4525302953D+00 EUMP2 =    -0.15069261792738D+03
 E2 =    -0.4525302953D+00 EUMP2 =    -0.15069261792738D+03
 SCF Done:  E(UHF) =  -150.239999451     A.U. after   12 cycles
 E2 =    -0.4526088239D+00 EUMP2 =    -0.15069260827478D+03
 E2 =    -0.4526088239D+00 EUMP2 =    -0.15069260827478D+03
 SCF Done:  E(UHF) =  -150.240155413     A.U. after   12 cycles
 E2 =    -0.4524519457D+00 EUMP2 =    -0.15069260735852D+03
 E2 =    -0.4524519457D+00 EUMP2 =    -0.15069260735852D+03
 SCF Done:  E(UHF) =  -150.240103746     A.U. after   12 cycles
 E2 =    -0.4524998968D+00 EUMP2 =    -0.15069260364299D+03
 E2 =    -0.4524998968D+00 EUMP2 =    -0.15069260364299D+03
 SCF Done:  E(UHF) =  -150.240034290     A.U. after   12 cycles
 E2 =    -0.4525695313D+00 EUMP2 =    -0.15069260382092D+03
 E2 =    -0.4525695313D+00 EUMP2 =    -0.15069260382092D+03
 SCF Done:  E(UHF) =  -150.239461599     A.U. after   12 cycles
 E2 =    -0.4530694849D+00 EUMP2 =    -0.15069253108354D+03
 E2 =    -0.4530694849D+00 EUMP2 =    -0.15069253108354D+03
 SCF Done:  E(UHF) =  -150.240529267     A.U. after   12 cycles
 E2 =    -0.4519942626D+00 EUMP2 =    -0.15069252352946D+03
 E2 =    -0.4519942626D+00 EUMP2 =    -0.15069252352946D+03

 Alpha  occ. eigenvalues --  -20.68748 -20.67575  -1.58889  -1.20766  -0.77988
 Alpha  occ. eigenvalues --   -0.76172  -0.68089  -0.52554  -0.52134
 Alpha virt. eigenvalues --    0.03060   0.10011   0.12894   0.15312   0.17888
 Alpha virt. eigenvalues --    0.19161   0.19972   0.20125   0.26769   0.27652
 Alpha virt. eigenvalues --    0.30183   0.34184   0.39984   0.43711   0.61705

  Beta  occ. eigenvalues --  -20.66737 -20.64721  -1.52691  -1.10501  -0.75962
  Beta  occ. eigenvalues --   -0.65608  -0.57421  -0.48465
  Beta virt. eigenvalues --    0.03083   0.09804   0.10205   0.12923   0.16481
  Beta virt. eigenvalues --    0.18038   0.19155   0.20223   0.23739   0.26863
  Beta virt. eigenvalues --    0.27679   0.31506   0.34404   0.40646   0.45153

 Mulliken charges and spin densities:
               1          2
     1  O   -0.164236   0.737357
     2  O   -0.108247   0.281191
     3  H    0.272483  -0.018548
 Sum of Mulliken charges =  -0.00000   1.00000

 Dipole moment (field-independent basis, Debye):
    X=             -1.6731    Y=             -1.3455    Z=             -0.0000  Tot=              2.1470
 Quadrupole moment (field-independent basis, Debye-Ang):
   XX=            -10.1104   YY=            -10.9987   ZZ=            -11.2572
   XY=              1.6657   XZ=             -0.0000   YZ=             -0.0000

  Exact polarizability:  11.339   1.344  18.557   0.000   0.000   9.795
 Approx polarizability:   8.913   0.735  12.869  -0.000   0.000   7.739

                      1                      2                      3
                     A'                     A'                     A'
 Frequencies --   1223.4690              1449.5918              3661.4751
 Red. masses --     10.7650                 1.1575                 1.0680
 Frc consts  --      9.4941                 1.4331                 8.4363
 IR Inten    --     92.7576                30.0789                46.9344

 - Thermochemistry -
 -------------------
 Temperature   298.150 Kelvin.  Pressure   1.00000 Atm.
 Atom     1 has atomic number  8 and mass  15.99491

 Molecular mass:    32.99765 amu.
 Principal axes and moments of inertia in atomic units:
                           1         2         3
     Eigenvalues --     2.91541  52.27327  55.18868
           X            0.06030   0.99818   0.00000
           Y            0.99818  -0.06030   0.00000
           Z            0.00000   0.00000   1.00000
 This molecule is an asymmetric top.
 Rotational symmetry number  1.
 Rotational temperatures (Kelvin)     29.70900     1.65694     1.56941
 Rotational constants (GHZ):         619.03517    34.52513    32.70129
 Zero-point vibrational energy      37888.9 (Joules/Mol)
                                    9.05567 (Kcal/Mol)
 Vibrational temperatures:   1760.30  2085.64  5268.05
          (Kelvin)

 Zero-point correction=                           0.014431 (Hartree/Particle)
 Thermal correction to Energy=                    0.017285
 Thermal correction to Enthalpy=                  0.018229
 Thermal correction to Gibbs Free Energy=        -0.007725
 Sum of electronic and zero-point Energies=           -150.678187
 Sum of electronic and thermal Energies=              -150.675333
 Sum of electronic and thermal Enthalpies=            -150.674389
 Sum of electronic and thermal Free Energies=         -150.700343

                     E (Thermal)             CV                S
                      KCal/Mol        Cal/Mol-Kelvin    Cal/Mol-Kelvin
 Total                   10.846              6.241             54.625
 Electronic               0.000              0.000              1.377
 Translational            0.889              2.981             36.413
 Rotational               0.889              2.981             16.782
 Vibrational              9.069              0.279              0.052

 Optimization completed.
    -- Stationary point found.

 1\1\GINC-N2295\Freq\UMP2-FC\Aug-CC-pVTZ\H1O2(2)\GDS001\24-Jun-2021\0\\
 #N Geom=AllCheck Guess=TCheck SCRF=Check GenChk UMP2(FC)/Aug-CC-pVTZ F
 req\\HO2*\\0,2\O,0.0386969815,0.,0.1182703249\O,-0.034760539,0.,1.4293
 029248\H,0.8917325575,0.,1.7290937503\\Version=ES64L-G16RevA.03\State=
 2-A"\HF=-150.2400876\MP2=-150.6926179\PUHF=-150.2450042\PMP2-0=-150.69
 56374\S2=0.763205\S2-1=0.752956\S2A=0.750127\RMSD=4.433e-10\RMSF=4.568
 e-05\ZeroPoint=0.0144311\Thermal=0.017285\Dipole=0.6311069,0.,0.567711
 2\DipoleDeriv=-0.1822113,0.,0.0420513,0.,-0.1441085,0.,-0.0218635,0.,0

 Normal termination of Gaussian 16 at Thu Jun 24 08:26:54 2021.
