 Gaussian 16, Revision C.01,
 Gaussian 16:  EM64L-G16RevC.01  3-Jul-2019

 ----------------------------------------------
 # MP2/aug-cc-pVDZ opt freq=(vibrot,anharmonic)
 ----------------------------------------------

 ----
 blah
 ----
 Symbolic Z-matrix:
 Charge =  0 Multiplicity = 1

 SCF Done:  E(RHF) =  -93.9709503887     A.U. after   12 cycles
 E2 =    -0.3376086085D+00 EUMP2 =    -0.94308558997219D+02
 SCF Done:  E(RHF) =  -94.0258969167     A.U. after   11 cycles
 E2 =    -0.3252333727D+00 EUMP2 =    -0.94351130289424D+02
 SCF Done:  E(RHF) =  -94.0473308639     A.U. after   11 cycles
 E2 =    -0.3129226725D+00 EUMP2 =    -0.94360253536398D+02
 SCF Done:  E(RHF) =  -94.0451994403     A.U. after   10 cycles
 E2 =    -0.3176630421D+00 EUMP2 =    -0.94362862482364D+02
 SCF Done:  E(RHF) =  -94.0453528973     A.U. after    9 cycles
 E2 =    -0.3175250178D+00 EUMP2 =    -0.94362877915041D+02
 SCF Done:  E(RHF) =  -94.0453420103     A.U. after    7 cycles
 E2 =    -0.3175368194D+00 EUMP2 =    -0.94362878829706D+02
 Optimization completed.
    -- Stationary point found.
 Normal termination of Gaussian 16 at Fri Apr  4 13:41:09 2025.

 ----------------------------------------------------------------------
 #N Geom=AllCheck Guess=TCheck SCRF=Check GenChk RMP2(FC)/Aug-CC-pVDZ F
 req
 ----------------------------------------------------------------------

 Structure from the checkpoint file:  "/scr/Gau-80222.chk"
 ----
 blah
 ----
 Charge =  0 Multiplicity = 1

                         Standard orientation:
 ---------------------------------------------------------------------
 Center     Atomic      Atomic             Coordinates (Angstroms)
 Number     Number       Type             X           Y           Z
 ---------------------------------------------------------------------
      1          6           0        0.057018    0.594750    0.000000
      2          7           0        0.057018   -0.694935    0.000000
      3          1           0       -0.851031    1.218969   -0.000000
      4          1           0        1.022638    1.115580    0.000000
      5          1           0       -0.912845   -1.038509   -0.000000
 ---------------------------------------------------------------------

 SCF Done:  E(RHF) =  -94.0453420103     A.U. after    1 cycles
 E2 =    -0.3175368187D+00 EUMP2 =    -0.94362878828968D+02
 E2 =    -0.3175368187D+00 EUMP2 =    -0.94362878828968D+02
 SCF Done:  E(RHF) =  -94.0453415730     A.U. after    9 cycles
 E2 =    -0.3175298193D+00 EUMP2 =    -0.94362871392372D+02
 E2 =    -0.3175298193D+00 EUMP2 =    -0.94362871392372D+02
 SCF Done:  E(RHF) =  -94.0453233457     A.U. after    9 cycles
 E2 =    -0.3175475716D+00 EUMP2 =    -0.94362870917353D+02
 E2 =    -0.3175475716D+00 EUMP2 =    -0.94362870917353D+02
 SCF Done:  E(RHF) =  -94.0453316804     A.U. after    9 cycles
 E2 =    -0.3175392342D+00 EUMP2 =    -0.94362870914564D+02
 E2 =    -0.3175392342D+00 EUMP2 =    -0.94362870914564D+02
 E2 =    -0.3175392342D+00 EUMP2 =    -0.94362870914564D+02
 E2 =    -0.3175392342D+00 EUMP2 =    -0.94362870914564D+02
 E2 =    -0.3175389044D+00 EUMP2 =    -0.94362869815037D+02
 E2 =    -0.3175389044D+00 EUMP2 =    -0.94362869815037D+02
 E2 =    -0.3175389044D+00 EUMP2 =    -0.94362869815037D+02
 E2 =    -0.3175389044D+00 EUMP2 =    -0.94362869815037D+02
 SCF Done:  E(RHF) =  -94.0455127789     A.U. after    9 cycles
 E2 =    -0.3173513942D+00 EUMP2 =    -0.94362864173102D+02
 E2 =    -0.3173513942D+00 EUMP2 =    -0.94362864173102D+02
 SCF Done:  E(RHF) =  -94.0451390494     A.U. after    9 cycles
 E2 =    -0.3177249186D+00 EUMP2 =    -0.94362863967932D+02
 E2 =    -0.3177249186D+00 EUMP2 =    -0.94362863967932D+02
 SCF Done:  E(RHF) =  -94.0449994599     A.U. after    9 cycles
 E2 =    -0.3178619393D+00 EUMP2 =    -0.94362861399171D+02
 E2 =    -0.3178619393D+00 EUMP2 =    -0.94362861399171D+02
 SCF Done:  E(RHF) =  -94.0456444106     A.U. after    9 cycles
 E2 =    -0.3172147869D+00 EUMP2 =    -0.94362859197528D+02
 E2 =    -0.3172147869D+00 EUMP2 =    -0.94362859197528D+02
 SCF Done:  E(RHF) =  -94.0454407672     A.U. after    9 cycles
 E2 =    -0.3173717781D+00 EUMP2 =    -0.94362812545318D+02
 E2 =    -0.3173717781D+00 EUMP2 =    -0.94362812545318D+02
 SCF Done:  E(RHF) =  -94.0451126377     A.U. after    9 cycles
 E2 =    -0.3177032446D+00 EUMP2 =    -0.94362815882306D+02
 E2 =    -0.3177032446D+00 EUMP2 =    -0.94362815882306D+02
 SCF Done:  E(RHF) =  -94.0452057635     A.U. after    9 cycles
 E2 =    -0.3176049024D+00 EUMP2 =    -0.94362810665885D+02
 E2 =    -0.3176049024D+00 EUMP2 =    -0.94362810665885D+02
 SCF Done:  E(RHF) =  -94.0453385638     A.U. after    9 cycles
 E2 =    -0.3174692431D+00 EUMP2 =    -0.94362807806983D+02
 E2 =    -0.3174692431D+00 EUMP2 =    -0.94362807806983D+02
 SCF Done:  E(RHF) =  -94.0455583461     A.U. after   10 cycles
 E2 =    -0.3172365729D+00 EUMP2 =    -0.94362794919014D+02
 E2 =    -0.3172365729D+00 EUMP2 =    -0.94362794919014D+02
 SCF Done:  E(RHF) =  -94.0449627330     A.U. after   10 cycles
 E2 =    -0.3178385378D+00 EUMP2 =    -0.94362801270886D+02
 E2 =    -0.3178385378D+00 EUMP2 =    -0.94362801270886D+02

 Alpha  occ. eigenvalues --  -15.58142 -11.29964  -1.20376  -0.84323  -0.67973
 Alpha  occ. eigenvalues --   -0.60001  -0.44517  -0.43490
 Alpha virt. eigenvalues --    0.03432   0.04971   0.05826   0.08493   0.11225
 Alpha virt. eigenvalues --    0.14575   0.15859   0.16655   0.19814   0.21117
 Alpha virt. eigenvalues --    0.23012   0.25184   0.30472   0.32339   0.32925

 Mulliken charges:
               1
     1  C    0.568389
     2  N   -0.300505
     3  H   -0.130099
     4  H   -0.178426
     5  H    0.040641
 Sum of Mulliken charges =  -0.00000

 Dipole moment (field-independent basis, Debye):
    X=             -1.3811    Y=              1.5712    Z=             -0.0000  Tot=              2.0919
 Quadrupole moment (field-independent basis, Debye-Ang):
   XX=            -12.0412   YY=            -13.1841   ZZ=            -14.0635
   XY=              2.1110   XZ=             -0.0000   YZ=             -0.0000

  Exact polarizability:      22.120       0.734      28.646       0.000       0.000      17.142
 Approx polarizability:      17.949       0.776      24.890       0.000       0.000      15.732

                      1                      2                      3
                     A'                     A"                     A"
 Frequencies --   1065.6730              1082.2723              1155.0336
 Red. masses --      1.0750                 1.3667                 1.0639
 Frc consts  --      0.7193                 0.9432                 0.8363
 IR Inten    --     34.0232                11.5943                47.4142

                      4                      5                      6
                     A'                     A'                     A'
 Frequencies --   1362.5785              1477.8912              1656.0069
 Red. masses --      1.4087                 1.3040                 3.1700
 Frc consts  --      1.5410                 1.6781                 5.1219
 IR Inten    --     33.8919                 4.5387                10.9282

                      7                      8                      9
                     A'                     A'                     A'
 Frequencies --   3092.0844              3208.9532              3456.0297
 Red. masses --      1.0580                 1.1138                 1.0762
 Frc consts  --      5.9597                 6.7577                 7.5737
 IR Inten    --     39.1112                22.8113                 1.5928

 - Thermochemistry -
 -------------------
 Temperature   298.150 Kelvin.  Pressure   1.00000 Atm.
 Atom     1 has atomic number  6 and mass  12.00000

 Molecular mass:    29.02655 amu.
 Principal axes and moments of inertia in atomic units:
                           1         2         3
     Eigenvalues --     9.34307  53.07362  62.41669
           X            0.07735   0.99700   0.00000
           Y            0.99700  -0.07735   0.00000
           Z           -0.00000  -0.00000   1.00000
 This molecule is an asymmetric top.
 Rotational symmetry number  1.
 Rotational temperatures (Kelvin)      9.27040     1.63196     1.38767
 Rotational constants (GHZ):         193.16372    34.00449    28.91440
 Zero-point vibrational energy     105011.3 (Joules/Mol)
                                   25.09831 (Kcal/Mol)
 Vibrational temperatures:   1533.27  1557.15  1661.84  1960.45  2126.36
          (Kelvin)           2382.62  4448.82  4616.97  4972.46

 Zero-point correction=                           0.039997 (Hartree/Particle)
 Thermal correction to Energy=                    0.042921
 Thermal correction to Enthalpy=                  0.043865
 Thermal correction to Gibbs Free Energy=         0.018048
 Sum of electronic and zero-point Energies=            -94.322882
 Sum of electronic and thermal Energies=               -94.319958
 Sum of electronic and thermal Enthalpies=             -94.319013
 Sum of electronic and thermal Free Energies=          -94.344830

                     E (Thermal)             CV                S
                      KCal/Mol        Cal/Mol-Kelvin    Cal/Mol-Kelvin
 Total                   26.933              7.048             54.336
 Electronic               0.000              0.000              0.000
 Translational            0.889              2.981             36.031
 Rotational               0.889              2.981             18.077
 Vibrational             25.156              1.087              0.228

 ## DEPERTURBED TRANSITIONS MOMENTS ##

 Electric dipole : Fundamental Bands
 ------------------------------------------------------------------------

 ## AFTER VARIATIONAL CORRECTION

 Electric dipole : Fundamental Bands
 ------------------------------------------------------------------------

 Optimization completed.
    -- Stationary point found.
 Normal termination of Gaussian 16 at Fri Apr  4 13:42:59 2025.
