 Gaussian 16, Revision C.01,
 Gaussian 16:  EM64L-G16RevC.01  3-Jul-2019

 ----------------------------------------------
 # MP2/aug-cc-pVTZ opt freq=(vibrot,anharmonic)
 ----------------------------------------------

 ----
 blah
 ----
 Symbolic Z-matrix:
 Charge =  0 Multiplicity = 1

 SCF Done:  E(RHF) =  -93.9927182868     A.U. after   11 cycles
 E2 =    -0.3983537275D+00 EUMP2 =    -0.94391072014356D+02
 SCF Done:  E(RHF) =  -94.0480945687     A.U. after   11 cycles
 E2 =    -0.3857975820D+00 EUMP2 =    -0.94433892150680D+02
 SCF Done:  E(RHF) =  -94.0699864033     A.U. after   10 cycles
 E2 =    -0.3739171865D+00 EUMP2 =    -0.94443903589866D+02
 SCF Done:  E(RHF) =  -94.0689794665     A.U. after   10 cycles
 E2 =    -0.3778227239D+00 EUMP2 =    -0.94446802190428D+02
 SCF Done:  E(RHF) =  -94.0690369731     A.U. after    9 cycles
 E2 =    -0.3777841838D+00 EUMP2 =    -0.94446821156932D+02
 SCF Done:  E(RHF) =  -94.0690150302     A.U. after    7 cycles
 E2 =    -0.3778074341D+00 EUMP2 =    -0.94446822464311D+02
 Optimization completed.
    -- Stationary point found.
 Normal termination of Gaussian 16 at Fri Apr  4 02:59:59 2025.

 ----------------------------------------------------------------------
 #N Geom=AllCheck Guess=TCheck SCRF=Check GenChk RMP2(FC)/Aug-CC-pVTZ F
 req
 ----------------------------------------------------------------------

 Structure from the checkpoint file:  "/scr/Gau-12371.chk"
 ----
 blah
 ----
 Charge =  0 Multiplicity = 1

                         Standard orientation:
 ---------------------------------------------------------------------
 Center     Atomic      Atomic             Coordinates (Angstroms)
 Number     Number       Type             X           Y           Z
 ---------------------------------------------------------------------
      1          6           0        0.056498    0.589075   -0.000000
      2          7           0        0.056498   -0.687334    0.000000
      3          1           0       -0.842490    1.205640   -0.000000
      4          1           0        1.010560    1.107093    0.000000
      5          1           0       -0.902547   -1.035841   -0.000000
 ---------------------------------------------------------------------

 SCF Done:  E(RHF) =  -94.0690150302     A.U. after    1 cycles
 E2 =    -0.3778074329D+00 EUMP2 =    -0.94446822463150D+02
 E2 =    -0.3778074329D+00 EUMP2 =    -0.94446822463150D+02
 SCF Done:  E(RHF) =  -94.0690186836     A.U. after    8 cycles
 E2 =    -0.3777963697D+00 EUMP2 =    -0.94446815053236D+02
 E2 =    -0.3777963697D+00 EUMP2 =    -0.94446815053236D+02
 SCF Done:  E(RHF) =  -94.0689923368     A.U. after    8 cycles
 E2 =    -0.3778221081D+00 EUMP2 =    -0.94446814444869D+02
 E2 =    -0.3778221081D+00 EUMP2 =    -0.94446814444869D+02
 SCF Done:  E(RHF) =  -94.0690046911     A.U. after    9 cycles
 E2 =    -0.3778097403D+00 EUMP2 =    -0.94446814431392D+02
 E2 =    -0.3778097403D+00 EUMP2 =    -0.94446814431392D+02
 E2 =    -0.3778097403D+00 EUMP2 =    -0.94446814431393D+02
 E2 =    -0.3778097403D+00 EUMP2 =    -0.94446814431393D+02
 E2 =    -0.3778094332D+00 EUMP2 =    -0.94446813346738D+02
 E2 =    -0.3778094332D+00 EUMP2 =    -0.94446813346738D+02
 E2 =    -0.3778094332D+00 EUMP2 =    -0.94446813346738D+02
 E2 =    -0.3778094332D+00 EUMP2 =    -0.94446813346738D+02
 SCF Done:  E(RHF) =  -94.0691446155     A.U. after    8 cycles
 E2 =    -0.3776630236D+00 EUMP2 =    -0.94446807639092D+02
 E2 =    -0.3776630236D+00 EUMP2 =    -0.94446807639092D+02
 SCF Done:  E(RHF) =  -94.0688524912     A.U. after    8 cycles
 E2 =    -0.3779549319D+00 EUMP2 =    -0.94446807423158D+02
 E2 =    -0.3779549319D+00 EUMP2 =    -0.94446807423158D+02
 SCF Done:  E(RHF) =  -94.0687174216     A.U. after    9 cycles
 E2 =    -0.3780870176D+00 EUMP2 =    -0.94446804439253D+02
 E2 =    -0.3780870176D+00 EUMP2 =    -0.94446804439253D+02
 SCF Done:  E(RHF) =  -94.0692714515     A.U. after    8 cycles
 E2 =    -0.3775313971D+00 EUMP2 =    -0.94446802848639D+02
 E2 =    -0.3775313971D+00 EUMP2 =    -0.94446802848640D+02
 SCF Done:  E(RHF) =  -94.0690445666     A.U. after    9 cycles
 E2 =    -0.3777120320D+00 EUMP2 =    -0.94446756598645D+02
 E2 =    -0.3777120320D+00 EUMP2 =    -0.94446756598645D+02
 SCF Done:  E(RHF) =  -94.0688527866     A.U. after    9 cycles
 E2 =    -0.3779065706D+00 EUMP2 =    -0.94446759357184D+02
 E2 =    -0.3779065706D+00 EUMP2 =    -0.94446759357184D+02
 SCF Done:  E(RHF) =  -94.0689033336     A.U. after    9 cycles
 E2 =    -0.3778513082D+00 EUMP2 =    -0.94446754641843D+02
 E2 =    -0.3778513082D+00 EUMP2 =    -0.94446754641843D+02
 SCF Done:  E(RHF) =  -94.0689856211     A.U. after    9 cycles
 E2 =    -0.3777665737D+00 EUMP2 =    -0.94446752194722D+02
 E2 =    -0.3777665737D+00 EUMP2 =    -0.94446752194722D+02
 SCF Done:  E(RHF) =  -94.0691824564     A.U. after    8 cycles
 E2 =    -0.3775556919D+00 EUMP2 =    -0.94446738148226D+02
 E2 =    -0.3775556919D+00 EUMP2 =    -0.94446738148226D+02
 SCF Done:  E(RHF) =  -94.0686813152     A.U. after    8 cycles
 E2 =    -0.3780620427D+00 EUMP2 =    -0.94446743357939D+02
 E2 =    -0.3780620427D+00 EUMP2 =    -0.94446743357939D+02

 Alpha  occ. eigenvalues --  -15.56860 -11.28617  -1.20730  -0.84510  -0.68484
 Alpha  occ. eigenvalues --   -0.60422  -0.44915  -0.43415
 Alpha virt. eigenvalues --    0.02765   0.04125   0.04789   0.07526   0.09667
 Alpha virt. eigenvalues --    0.12755   0.13037   0.13707   0.15667   0.16938
 Alpha virt. eigenvalues --    0.18291   0.20111   0.23692   0.24621   0.26334

 Mulliken charges:
               1
     1  C   -0.703545
     2  N   -0.489685
     3  H    0.475694
     4  H    0.497852
     5  H    0.219683
 Sum of Mulliken charges =   0.00000

 Dipole moment (field-independent basis, Debye):
    X=             -1.3739    Y=              1.5545    Z=             -0.0000  Tot=              2.0747
 Quadrupole moment (field-independent basis, Debye-Ang):
   XX=            -11.8722   YY=            -12.9559   ZZ=            -13.8814
   XY=              2.0929   XZ=              0.0000   YZ=             -0.0000

  Exact polarizability:      21.953       0.730      28.200      -0.000       0.000      17.226
 Approx polarizability:      17.767       0.758      24.290      -0.000      -0.000      15.731

                      1                      2                      3
                     A'                     A"                     A"
 Frequencies --   1068.5828              1090.4694              1161.7249
 Red. masses --      1.0711                 1.3645                 1.0659
 Frc consts  --      0.7206                 0.9560                 0.8476
 IR Inten    --     36.3810                14.2234                43.0037

                      4                      5                      6
                     A'                     A'                     A'
 Frequencies --   1365.8308              1486.6418              1668.9877
 Red. masses --      1.4152                 1.2859                 3.2915
 Frc consts  --      1.5555                 1.6744                 5.4019
 IR Inten    --     35.6914                 5.5207                11.7460

                      7                      8                      9
                     A'                     A'                     A'
 Frequencies --   3089.0103              3196.3306              3476.9003
 Red. masses --      1.0578                 1.1142                 1.0758
 Frc consts  --      5.9471                 6.7068                 7.6627
 IR Inten    --     37.3882                20.1853                 1.6088

 - Thermochemistry -
 -------------------
 Temperature   298.150 Kelvin.  Pressure   1.00000 Atm.
 Atom     1 has atomic number  6 and mass  12.00000

 Molecular mass:    29.02655 amu.
 Principal axes and moments of inertia in atomic units:
                           1         2         3
     Eigenvalues --     9.13227  52.06102  61.19329
           X            0.07789   0.99696   0.00000
           Y            0.99696  -0.07789   0.00000
           Z           -0.00000   0.00000   1.00000
 This molecule is an asymmetric top.
 Rotational symmetry number  1.
 Rotational temperatures (Kelvin)      9.48438     1.66370     1.41542
 Rotational constants (GHZ):         197.62249    34.66588    29.49247
 Zero-point vibrational energy     105298.2 (Joules/Mol)
                                   25.16687 (Kcal/Mol)
 Vibrational temperatures:   1537.45  1568.94  1671.46  1965.13  2138.95
          (Kelvin)           2401.30  4444.40  4598.81  5002.48

 Zero-point correction=                           0.040106 (Hartree/Particle)
 Thermal correction to Energy=                    0.043028
 Thermal correction to Enthalpy=                  0.043972
 Thermal correction to Gibbs Free Energy=         0.018187
 Sum of electronic and zero-point Energies=            -94.406717
 Sum of electronic and thermal Energies=               -94.403794
 Sum of electronic and thermal Enthalpies=             -94.402850
 Sum of electronic and thermal Free Energies=          -94.428635

                     E (Thermal)             CV                S
                      KCal/Mol        Cal/Mol-Kelvin    Cal/Mol-Kelvin
 Total                   27.001              7.028             54.269
 Electronic               0.000              0.000              0.000
 Translational            0.889              2.981             36.031
 Rotational               0.889              2.981             18.015
 Vibrational             25.223              1.066              0.223

 ## DEPERTURBED TRANSITIONS MOMENTS ##

 Electric dipole : Fundamental Bands
 ------------------------------------------------------------------------

 ## AFTER VARIATIONAL CORRECTION

 Electric dipole : Fundamental Bands
 ------------------------------------------------------------------------

 Optimization completed.
    -- Stationary point found.
 Normal termination of Gaussian 16 at Fri Apr  4 03:27:26 2025.
