 Gaussian 16, Revision A.03,
 Gaussian 16:  ES64L-G16RevA.03 25-Dec-2016

 ----------------------------------------------
 # mp2/aug-cc-pVTZ opt freq=(vibrot,anharmonic)
 ----------------------------------------------

 ----
 MeOH
 ----
 Symbolic Z-matrix:
 Charge =  0 Multiplicity = 1

 SCF Done:  E(RHF) =  -115.090815238     A.U. after   10 cycles
 E2 =    -0.4378286233D+00 EUMP2 =    -0.11552864386078D+03
 SCF Done:  E(RHF) =  -115.091966735     A.U. after    9 cycles
 E2 =    -0.4370344320D+00 EUMP2 =    -0.11552900116667D+03
 SCF Done:  E(RHF) =  -115.092018837     A.U. after    7 cycles
 E2 =    -0.4369881571D+00 EUMP2 =    -0.11552900699423D+03
 SCF Done:  E(RHF) =  -115.092031387     A.U. after    7 cycles
 E2 =    -0.4369763191D+00 EUMP2 =    -0.11552900770579D+03
 Optimization completed.
    -- Stationary point found.
 Normal termination of Gaussian 16 at Fri Jun 25 11:53:36 2021.

 ----------------------------------------------------------------------
 #N Geom=AllCheck Guess=TCheck SCRF=Check GenChk RMP2(FC)/Aug-CC-pVTZ F
 req
 ----------------------------------------------------------------------

 Structure from the checkpoint file:  "meoh_mp2_avtz_opt_anharm.chk"
 ----
 MeOH
 ----
 Charge =  0 Multiplicity = 1

                         Standard orientation:
 ---------------------------------------------------------------------
 Center     Atomic      Atomic             Coordinates (Angstroms)
 Number     Number       Type             X           Y           Z
 ---------------------------------------------------------------------
      1          8           0        0.046723   -0.757780    0.000000
      2          1           0       -0.867174   -1.055247    0.000000
      3          6           0        0.046723    0.666112    0.000000
      4          1           0        1.087724    0.975105    0.000000
      5          1           0       -0.437336    1.072853    0.889372
      6          1           0       -0.437336    1.072853   -0.889372
 ---------------------------------------------------------------------

 SCF Done:  E(RHF) =  -115.092031387     A.U. after    1 cycles
 E2 =    -0.4369763194D+00 EUMP2 =    -0.11552900770608D+03
 E2 =    -0.4369763194D+00 EUMP2 =    -0.11552900770608D+03
 SCF Done:  E(RHF) =  -115.092028655     A.U. after    8 cycles
 E2 =    -0.4369784835D+00 EUMP2 =    -0.11552900713825D+03
 E2 =    -0.4369784835D+00 EUMP2 =    -0.11552900713825D+03
 SCF Done:  E(RHF) =  -115.092028655     A.U. after    8 cycles
 E2 =    -0.4369784835D+00 EUMP2 =    -0.11552900713825D+03
 E2 =    -0.4369784835D+00 EUMP2 =    -0.11552900713825D+03
 SCF Done:  E(RHF) =  -115.091919330     A.U. after    8 cycles
 E2 =    -0.4370802620D+00 EUMP2 =    -0.11552899959241D+03
 E2 =    -0.4370802620D+00 EUMP2 =    -0.11552899959241D+03
 SCF Done:  E(RHF) =  -115.092125517     A.U. after    8 cycles
 E2 =    -0.4368752261D+00 EUMP2 =    -0.11552900074323D+03
 E2 =    -0.4368752261D+00 EUMP2 =    -0.11552900074323D+03
 SCF Done:  E(RHF) =  -115.092089692     A.U. after    8 cycles
 E2 =    -0.4369108847D+00 EUMP2 =    -0.11552900057653D+03
 E2 =    -0.4369108847D+00 EUMP2 =    -0.11552900057653D+03
 E2 =    -0.4370437185D+00 EUMP2 =    -0.11552899883088D+03
 E2 =    -0.4370437185D+00 EUMP2 =    -0.11552899883088D+03
 E2 =    -0.4369778065D+00 EUMP2 =    -0.11552899823475D+03
 E2 =    -0.4369778065D+00 EUMP2 =    -0.11552899823475D+03
 SCF Done:  E(RHF) =  -115.092001491     A.U. after    7 cycles
 E2 =    -0.4369905967D+00 EUMP2 =    -0.11552899208773D+03
 E2 =    -0.4369905967D+00 EUMP2 =    -0.11552899208773D+03
 SCF Done:  E(RHF) =  -115.092025365     A.U. after    7 cycles
 E2 =    -0.4369660842D+00 EUMP2 =    -0.11552899144899D+03
 E2 =    -0.4369660842D+00 EUMP2 =    -0.11552899144899D+03
 SCF Done:  E(RHF) =  -115.092102428     A.U. after    8 cycles
 E2 =    -0.4368407573D+00 EUMP2 =    -0.11552894318557D+03
 E2 =    -0.4368407573D+00 EUMP2 =    -0.11552894318557D+03
 SCF Done:  E(RHF) =  -115.091830856     A.U. after    8 cycles
 E2 =    -0.4371152506D+00 EUMP2 =    -0.11552894610679D+03
 E2 =    -0.4371152506D+00 EUMP2 =    -0.11552894610679D+03
 SCF Done:  E(RHF) =  -115.091964732     A.U. after    8 cycles
 E2 =    -0.4369769281D+00 EUMP2 =    -0.11552894165995D+03
 E2 =    -0.4369769281D+00 EUMP2 =    -0.11552894165995D+03
 SCF Done:  E(RHF) =  -115.091964732     A.U. after    8 cycles
 E2 =    -0.4369769281D+00 EUMP2 =    -0.11552894165995D+03
 E2 =    -0.4369769281D+00 EUMP2 =    -0.11552894165995D+03
 SCF Done:  E(RHF) =  -115.092006028     A.U. after    8 cycles
 E2 =    -0.4369319543D+00 EUMP2 =    -0.11552893798202D+03
 E2 =    -0.4369319543D+00 EUMP2 =    -0.11552893798202D+03
 SCF Done:  E(RHF) =  -115.091918662     A.U. after    8 cycles
 E2 =    -0.4370217646D+00 EUMP2 =    -0.11552894042616D+03
 E2 =    -0.4370217646D+00 EUMP2 =    -0.11552894042616D+03
 SCF Done:  E(RHF) =  -115.091488703     A.U. after    8 cycles
 E2 =    -0.4374212189D+00 EUMP2 =    -0.11552890992154D+03
 E2 =    -0.4374212189D+00 EUMP2 =    -0.11552890992154D+03
 SCF Done:  E(RHF) =  -115.092371470     A.U. after    8 cycles
 E2 =    -0.4365325536D+00 EUMP2 =    -0.11552890402322D+03
 E2 =    -0.4365325536D+00 EUMP2 =    -0.11552890402322D+03

 Alpha  occ. eigenvalues --  -20.55809 -11.27118  -1.35860  -0.92734  -0.69240
 Alpha  occ. eigenvalues --   -0.62078  -0.59279  -0.50559  -0.45253
 Alpha virt. eigenvalues --    0.02854   0.04305   0.04655   0.05296   0.09900
 Alpha virt. eigenvalues --    0.11672   0.12923   0.14001   0.16542   0.17339
 Alpha virt. eigenvalues --    0.18264   0.21136   0.21516   0.26778   0.27053

 Mulliken charges:
               1
     1  O   -0.440530
     2  H    0.182847
     3  C   -0.727753
     4  H    0.344855
     5  H    0.320291
     6  H    0.320291
 Sum of Mulliken charges =  -0.00000

 Dipole moment (field-independent basis, Debye):
    X=             -1.3511    Y=              1.0358    Z=              0.0000  Tot=              1.7024
 Quadrupole moment (field-independent basis, Debye-Ang):
   XX=            -11.9197   YY=            -13.6610   ZZ=            -13.9864
   XY=              2.0833   XZ=              0.0000   YZ=              0.0000

  Exact polarizability:  20.188   0.544  23.075  -0.000  -0.000  19.686
 Approx polarizability:  16.830   0.383  17.119  -0.000  -0.000  15.588

                      1                      2                      3
                     A"                     A'                     A'
 Frequencies --    289.0851              1056.2275              1088.2636
 Red. masses --      1.0704                 2.3475                 1.5840
 Frc consts  --      0.0527                 1.5430                 1.1053
 IR Inten    --    102.9312               116.6884                 1.7378

                      4                      5                      6
                     A"                     A'                     A'
 Frequencies --   1183.7899              1371.4637              1491.9195
 Red. masses --      1.2633                 1.2884                 1.1397
 Frc consts  --      1.0431                 1.4278                 1.4946
 IR Inten    --      0.4342                20.8477                 3.4052

                      7                      8                      9
                     A"                     A'                     A'
 Frequencies --   1525.5511              1535.8017              3054.7576
 Red. masses --      1.0479                 1.0416                 1.0332
 Frc consts  --      1.4368                 1.4475                 5.6807
 IR Inten    --      2.9559                 5.2066                53.4062

                     10                     11                     12
                     A"                     A'                     A'
 Frequencies --   3126.2417              3183.6586              3860.3389
 Red. masses --      1.1060                 1.1012                 1.0668
 Frc consts  --      6.3686                 6.5763                 9.3663
 IR Inten    --     39.1698                18.6103                39.3067

 - Thermochemistry -
 -------------------
 Temperature   298.150 Kelvin.  Pressure   1.00000 Atm.
 Atom     1 has atomic number  8 and mass  15.99491

 Molecular mass:    32.02621 amu.
 Principal axes and moments of inertia in atomic units:
                           1         2         3
     Eigenvalues --    14.03251  72.92864  75.57413
           X            0.05429   0.99853   0.00000
           Y            0.99853  -0.05429   0.00000
           Z            0.00000   0.00000   1.00000
 This molecule is an asymmetric top.
 Rotational symmetry number  1.
 Rotational temperatures (Kelvin)      6.17237     1.18765     1.14608
 Rotational constants (GHZ):         128.61140    24.74667    23.88041
 Zero-point vibrational energy     136177.5 (Joules/Mol)
                                   32.54720 (Kcal/Mol)
 Warning -- explicit consideration of   1 degrees of freedom as
           vibrations may cause significant error
 Vibrational temperatures:    415.93  1519.68  1565.77  1703.21  1973.23
          (Kelvin)           2146.54  2194.93  2209.68  4395.11  4497.96
                             4580.57  5554.17

 Zero-point correction=                           0.051867 (Hartree/Particle)
 Thermal correction to Energy=                    0.055230
 Thermal correction to Enthalpy=                  0.056174
 Thermal correction to Gibbs Free Energy=         0.029078
 Sum of electronic and zero-point Energies=           -115.477140
 Sum of electronic and thermal Energies=              -115.473778
 Sum of electronic and thermal Enthalpies=            -115.472834
 Sum of electronic and thermal Free Energies=         -115.499930

                     E (Thermal)             CV                S
                      KCal/Mol        Cal/Mol-Kelvin    Cal/Mol-Kelvin
 Total                   34.657              8.810             57.027
 Electronic               0.000              0.000              0.000
 Translational            0.889              2.981             36.324
 Rotational               0.889              2.981             18.987
 Vibrational             32.880              2.848              1.717
 Vibration     1          0.686              1.694              1.479

 ## DEPERTURBED TRANSITIONS MOMENTS ##

 Electric dipole : Fundamental Bands
 ------------------------------------------------------------------------

 ## AFTER VARIATIONAL CORRECTION

 Electric dipole : Fundamental Bands
 ------------------------------------------------------------------------

 Optimization completed.
    -- Stationary point found.
 Normal termination of Gaussian 16 at Fri Jun 25 13:05:16 2021.
