 Gaussian 16, Revision A.03,
 Gaussian 16:  ES64L-G16RevA.03 25-Dec-2016

 ---------------------------------------------
 # MP2/aug-cc-pVDZ Opt Freq(vibrot,anharmonic)
 ---------------------------------------------

 ----
 meoh
 ----
 Symbolic Z-matrix:
 Charge =  0 Multiplicity = 1

 SCF Done:  E(RHF) =  -115.060508391     A.U. after   11 cycles
 E2 =    -0.3602718869D+00 EUMP2 =    -0.11542078027799D+03
 SCF Done:  E(RHF) =  -115.060492825     A.U. after   10 cycles
 E2 =    -0.3613790396D+00 EUMP2 =    -0.11542187186493D+03
 SCF Done:  E(RHF) =  -115.060698189     A.U. after    9 cycles
 E2 =    -0.3612325868D+00 EUMP2 =    -0.11542193077614D+03
 Optimization completed.
    -- Stationary point found.
 Normal termination of Gaussian 16 at Thu Aug  6 19:40:58 2020.

 ----------------------------------------------------------------------
 #N Geom=AllCheck Guess=TCheck SCRF=Check GenChk RMP2(FC)/Aug-CC-pVDZ F
 req
 ----------------------------------------------------------------------

 Structure from the checkpoint file:  "meoh.chk"
 ----
 meoh
 ----
 Charge =  0 Multiplicity = 1

                         Standard orientation:
 ---------------------------------------------------------------------
 Center     Atomic      Atomic             Coordinates (Angstroms)
 Number     Number       Type             X           Y           Z
 ---------------------------------------------------------------------
      1          8           0       -0.046823   -0.763522    0.000000
      2          1           0        0.871925   -1.061039    0.000000
      3          6           0       -0.046823    0.670717   -0.000000
      4          1           0       -1.100043    0.980275   -0.000000
      5          1           0        0.441824    1.082318   -0.899428
      6          1           0        0.441824    1.082318    0.899428
 ---------------------------------------------------------------------

 SCF Done:  E(RHF) =  -115.060698189     A.U. after    1 cycles
 E2 =    -0.3612325875D+00 EUMP2 =    -0.11542193077679D+03
 E2 =    -0.3612325875D+00 EUMP2 =    -0.11542193077679D+03
 SCF Done:  E(RHF) =  -115.060695205     A.U. after    8 cycles
 E2 =    -0.3612349184D+00 EUMP2 =    -0.11542193012322D+03
 E2 =    -0.3612349184D+00 EUMP2 =    -0.11542193012322D+03
 SCF Done:  E(RHF) =  -115.060695205     A.U. after    8 cycles
 E2 =    -0.3612349184D+00 EUMP2 =    -0.11542193012322D+03
 E2 =    -0.3612349184D+00 EUMP2 =    -0.11542193012322D+03
 SCF Done:  E(RHF) =  -115.060562833     A.U. after    8 cycles
 E2 =    -0.3613622926D+00 EUMP2 =    -0.11542192512567D+03
 E2 =    -0.3613622926D+00 EUMP2 =    -0.11542192512567D+03
 SCF Done:  E(RHF) =  -115.060816629     A.U. after    8 cycles
 E2 =    -0.3611050295D+00 EUMP2 =    -0.11542192165864D+03
 E2 =    -0.3611050295D+00 EUMP2 =    -0.11542192165864D+03
 SCF Done:  E(RHF) =  -115.060757841     A.U. after    8 cycles
 E2 =    -0.3611637716D+00 EUMP2 =    -0.11542192161237D+03
 E2 =    -0.3611637716D+00 EUMP2 =    -0.11542192161237D+03
 SCF Done:  E(RHF) =  -115.060620301     A.U. after    8 cycles
 E2 =    -0.3613040017D+00 EUMP2 =    -0.11542192430273D+03
 E2 =    -0.3613040017D+00 EUMP2 =    -0.11542192430273D+03
 E2 =    -0.3612341568D+00 EUMP2 =    -0.11542192152918D+03
 E2 =    -0.3612341568D+00 EUMP2 =    -0.11542192152918D+03
 E2 =    -0.3612341568D+00 EUMP2 =    -0.11542192152918D+03
 SCF Done:  E(RHF) =  -115.060664873     A.U. after    7 cycles
 E2 =    -0.3612512359D+00 EUMP2 =    -0.11542191610929D+03
 E2 =    -0.3612512359D+00 EUMP2 =    -0.11542191610929D+03
 SCF Done:  E(RHF) =  -115.060696500     A.U. after    7 cycles
 E2 =    -0.3612183193D+00 EUMP2 =    -0.11542191481922D+03
 E2 =    -0.3612183193D+00 EUMP2 =    -0.11542191481922D+03
 SCF Done:  E(RHF) =  -115.060879140     A.U. after    9 cycles
 E2 =    -0.3609926874D+00 EUMP2 =    -0.11542187182777D+03
 E2 =    -0.3609926874D+00 EUMP2 =    -0.11542187182777D+03
 SCF Done:  E(RHF) =  -115.060390364     A.U. after    9 cycles
 E2 =    -0.3614735441D+00 EUMP2 =    -0.11542186390781D+03
 E2 =    -0.3614735441D+00 EUMP2 =    -0.11542186390781D+03
 SCF Done:  E(RHF) =  -115.060632478     A.U. after    9 cycles
 E2 =    -0.3612321672D+00 EUMP2 =    -0.11542186464543D+03
 E2 =    -0.3612321672D+00 EUMP2 =    -0.11542186464543D+03
 SCF Done:  E(RHF) =  -115.060632478     A.U. after    9 cycles
 E2 =    -0.3612321672D+00 EUMP2 =    -0.11542186464543D+03
 E2 =    -0.3612321672D+00 EUMP2 =    -0.11542186464543D+03
 SCF Done:  E(RHF) =  -115.060701782     A.U. after    9 cycles
 E2 =    -0.3611618497D+00 EUMP2 =    -0.11542186363173D+03
 E2 =    -0.3611618497D+00 EUMP2 =    -0.11542186363173D+03
 SCF Done:  E(RHF) =  -115.060558417     A.U. after    8 cycles
 E2 =    -0.3613022509D+00 EUMP2 =    -0.11542186066776D+03
 E2 =    -0.3613022509D+00 EUMP2 =    -0.11542186066776D+03
 SCF Done:  E(RHF) =  -115.060120425     A.U. after    9 cycles
 E2 =    -0.3617131658D+00 EUMP2 =    -0.11542183359079D+03
 E2 =    -0.3617131658D+00 EUMP2 =    -0.11542183359079D+03
 SCF Done:  E(RHF) =  -115.061075393     A.U. after    9 cycles
 E2 =    -0.3607530151D+00 EUMP2 =    -0.11542182840807D+03
 E2 =    -0.3607530151D+00 EUMP2 =    -0.11542182840807D+03

 Alpha  occ. eigenvalues --  -20.56875 -11.28438  -1.35795  -0.92493  -0.68945
 Alpha  occ. eigenvalues --   -0.61638  -0.58943  -0.50464  -0.45143
 Alpha virt. eigenvalues --    0.03452   0.05176   0.05809   0.06559   0.11488
 Alpha virt. eigenvalues --    0.14027   0.15324   0.17154   0.20811   0.22245
 Alpha virt. eigenvalues --    0.24379   0.27950   0.28049   0.32466   0.33684

 Mulliken charges:
               1
     1  O   -0.474656
     2  H    0.089634
     3  C    0.810839
     4  H   -0.179116
     5  H   -0.123350
     6  H   -0.123350
 Sum of Mulliken charges =  -0.00000

 Dipole moment (field-independent basis, Debye):
    X=              1.3530    Y=              1.0452    Z=              0.0000  Tot=              1.7097
 Quadrupole moment (field-independent basis, Debye-Ang):
   XX=            -12.0958   YY=            -13.8388   ZZ=            -14.1999
   XY=             -2.1060   XZ=              0.0000   YZ=              0.0000

  Exact polarizability:  20.389  -0.559  23.256   0.000  -0.000  19.814
 Approx polarizability:  17.042  -0.390  17.337  -0.000  -0.000  15.744

                      1                      2                      3
                     A"                     A'                     A'
 Frequencies --    310.6097              1045.4200              1075.7448
 Red. masses --      1.0709                 3.1809                 1.3584
 Frc consts  --      0.0609                 2.0482                 0.9262
 IR Inten    --    105.0644               112.6814                 0.4347

                      4                      5                      6
                     A"                     A'                     A'
 Frequencies --   1169.8569              1366.3265              1465.9917
 Red. masses --      1.2644                 1.2880                 1.1330
 Frc consts  --      1.0196                 1.4167                 1.4346
 IR Inten    --      0.3891                22.1743                 4.5268

                      7                      8                      9
                     A"                     A'                     A'
 Frequencies --   1493.9958              1505.3835              3051.1027
 Red. masses --      1.0473                 1.0399                 1.0336
 Frc consts  --      1.3773                 1.3885                 5.6690
 IR Inten    --      2.5390                 4.5789                56.8318

                     10                     11                     12
                     A"                     A'                     A'
 Frequencies --   3128.2004              3186.5872              3841.9635
 Red. masses --      1.1060                 1.1013                 1.0669
 Frc consts  --      6.3767                 6.5889                 9.2787
 IR Inten    --     44.9961                22.0401                34.5574

 - Thermochemistry -
 -------------------
 Temperature   298.150 Kelvin.  Pressure   1.00000 Atm.
 Atom     1 has atomic number  8 and mass  15.99491

 Molecular mass:    32.02621 amu.
 Principal axes and moments of inertia in atomic units:
                           1         2         3
     Eigenvalues --    14.31711  74.04060  76.71175
           X           -0.05403   0.99854   0.00000
           Y            0.99854   0.05403   0.00000
           Z           -0.00000   0.00000   1.00000
 This molecule is an asymmetric top.
 Rotational symmetry number  1.
 Rotational temperatures (Kelvin)      6.04968     1.16982     1.12908
 Rotational constants (GHZ):         126.05484    24.37502    23.52627
 Zero-point vibrational energy     135424.3 (Joules/Mol)
                                   32.36720 (Kcal/Mol)
 Warning -- explicit consideration of   1 degrees of freedom as
           vibrations may cause significant error
 Vibrational temperatures:    446.90  1504.13  1547.76  1683.16  1965.84
          (Kelvin)           2109.24  2149.53  2165.91  4389.86  4500.78
                             4584.79  5527.73

 Zero-point correction=                           0.051580 (Hartree/Particle)
 Thermal correction to Energy=                    0.054921
 Thermal correction to Enthalpy=                  0.055865
 Thermal correction to Gibbs Free Energy=         0.028797
 Sum of electronic and zero-point Energies=           -115.370350
 Sum of electronic and thermal Energies=              -115.367009
 Sum of electronic and thermal Enthalpies=            -115.366065
 Sum of electronic and thermal Free Energies=         -115.393134

                     E (Thermal)             CV                S
                      KCal/Mol        Cal/Mol-Kelvin    Cal/Mol-Kelvin
 Total                   34.464              8.825             56.971
 Electronic               0.000              0.000              0.000
 Translational            0.889              2.981             36.324
 Rotational               0.889              2.981             19.037
 Vibrational             32.686              2.864              1.610
 Vibration     1          0.699              1.653              1.359

 ## DEPERTURBED TRANSITIONS MOMENTS ##

 Electric dipole : Fundamental Bands
 ------------------------------------------------------------------------

 ## AFTER VARIATIONAL CORRECTION

 Electric dipole : Fundamental Bands
 ------------------------------------------------------------------------

 Optimization completed.
    -- Stationary point found.
 Normal termination of Gaussian 16 at Thu Aug  6 19:48:28 2020.
