 Gaussian 16, Revision A.03,
 Gaussian 16:  ES64L-G16RevA.03 25-Dec-2016

 ---------------------------------------------
 # MP2/aug-cc-pVDZ Opt Freq(vibrot,anharmonic)
 ---------------------------------------------

 ---
 hcn
 ---
 Symbolic Z-matrix:
 Charge =  0 Multiplicity = 1

 SCF Done:  E(RHF) =  -92.8822143808     A.U. after   10 cycles
 E2 =    -0.3014056376D+00 EUMP2 =    -0.93183620018431D+02
 SCF Done:  E(RHF) =  -92.8824127881     A.U. after    8 cycles
 E2 =    -0.3012456772D+00 EUMP2 =    -0.93183658465281D+02
 SCF Done:  E(RHF) =  -92.8824244312     A.U. after    7 cycles
 E2 =    -0.3012346904D+00 EUMP2 =    -0.93183659121649D+02
 Optimization completed.
    -- Stationary point found.
 Normal termination of Gaussian 16 at Tue Aug  4 16:28:32 2020.

 ----------------------------------------------------------------------
 #N Geom=AllCheck Guess=TCheck SCRF=Check GenChk RMP2(FC)/Aug-CC-pVDZ F
 req
 ----------------------------------------------------------------------

 Structure from the checkpoint file:  "hcn.chk"
 ---
 hcn
 ---
 Charge =  0 Multiplicity = 1

                         Standard orientation:
 ---------------------------------------------------------------------
 Center     Atomic      Atomic             Coordinates (Angstroms)
 Number     Number       Type             X           Y           Z
 ---------------------------------------------------------------------
      1          7           0       -0.000000   -0.000000    0.668414
      2          6           0        0.000000    0.000000   -0.514424
      3          1           0        0.000000    0.000000   -1.592356
 ---------------------------------------------------------------------

 SCF Done:  E(RHF) =  -92.8824244312     A.U. after    1 cycles
 E2 =    -0.3012346893D+00 EUMP2 =    -0.93183659120532D+02
 E2 =    -0.3012346893D+00 EUMP2 =    -0.93183659120532D+02
 SCF Done:  E(RHF) =  -92.8824190260     A.U. after    8 cycles
 E2 =    -0.3012367741D+00 EUMP2 =    -0.93183655800066D+02
 E2 =    -0.3012367741D+00 EUMP2 =    -0.93183655800066D+02
 SCF Done:  E(RHF) =  -92.8824190260     A.U. after    8 cycles
 E2 =    -0.3012367741D+00 EUMP2 =    -0.93183655800065D+02
 E2 =    -0.3012367741D+00 EUMP2 =    -0.93183655800065D+02
 SCF Done:  E(RHF) =  -92.8824190260     A.U. after    8 cycles
 E2 =    -0.3012367741D+00 EUMP2 =    -0.93183655800066D+02
 E2 =    -0.3012367741D+00 EUMP2 =    -0.93183655800066D+02
 SCF Done:  E(RHF) =  -92.8824190260     A.U. after    8 cycles
 E2 =    -0.3012367741D+00 EUMP2 =    -0.93183655800066D+02
 E2 =    -0.3012367741D+00 EUMP2 =    -0.93183655800066D+02
 SCF Done:  E(RHF) =  -92.8815167328     A.U. after    8 cycles
 E2 =    -0.3021156991D+00 EUMP2 =    -0.93183632431883D+02
 E2 =    -0.3021156991D+00 EUMP2 =    -0.93183632431883D+02
 SCF Done:  E(RHF) =  -92.8832741002     A.U. after    8 cycles
 E2 =    -0.3003581780D+00 EUMP2 =    -0.93183632278205D+02
 E2 =    -0.3003581780D+00 EUMP2 =    -0.93183632278205D+02
 SCF Done:  E(RHF) =  -92.8824677096     A.U. after    8 cycles
 E2 =    -0.3011122119D+00 EUMP2 =    -0.93183579921529D+02
 E2 =    -0.3011122119D+00 EUMP2 =    -0.93183579921529D+02
 SCF Done:  E(RHF) =  -92.8822179505     A.U. after    8 cycles
 E2 =    -0.3013588981D+00 EUMP2 =    -0.93183576848671D+02
 E2 =    -0.3013588981D+00 EUMP2 =    -0.93183576848671D+02

 Alpha  occ. eigenvalues --  -15.62196 -11.31392  -1.22702  -0.81711  -0.58360
 Alpha  occ. eigenvalues --   -0.48780  -0.48780
 Alpha virt. eigenvalues --    0.02869   0.08210   0.08329   0.08329   0.15549
 Alpha virt. eigenvalues --    0.15549   0.15719   0.18155   0.24113   0.24113
 Alpha virt. eigenvalues --    0.26751   0.33660   0.41077   0.41077   0.43131

 Mulliken charges:
               1
     1  N   -0.348502
     2  C    0.318855
     3  H    0.029647
 Sum of Mulliken charges =   0.00000

 Dipole moment (field-independent basis, Debye):
    X=              0.0000    Y=             -0.0000    Z=             -3.0151  Tot=              3.0151
 Quadrupole moment (field-independent basis, Debye-Ang):
   XX=            -11.9961   YY=            -11.9961   ZZ=            -10.1124
   XY=              0.0000   XZ=              0.0000   YZ=              0.0000

  Exact polarizability:  13.834  -0.000  13.834  -0.000  -0.000  22.688
 Approx polarizability:  12.647   0.000  12.647  -0.000  -0.000  24.255

                      1                      2                      3
                     PI                     PI                     SG
 Frequencies --    700.7155               700.7155              1990.1809
 Red. masses --      1.3371                 1.3371                 5.7709
 Frc consts  --      0.3868                 0.3868                13.4671
 IR Inten    --     38.7335                38.7335                 0.5433

                      4
                     SG
 Frequencies --   3456.2008
 Red. masses --      1.1592
 Frc consts  --      8.1587
 IR Inten    --     74.3170

 - Thermochemistry -
 -------------------
 Temperature   298.150 Kelvin.  Pressure   1.00000 Atm.
 Atom     1 has atomic number  7 and mass  14.00307

 Molecular mass:    27.01090 amu.
 Principal axes and moments of inertia in atomic units:
                           1         2         3
     Eigenvalues --     0.00000  42.47648  42.47648
           X           -0.00000   0.75552  -0.65512
           Y           -0.00000   0.65512   0.75552
           Z            1.00000   0.00000  -0.00000
 This molecule is a prolate symmetric top.
 Rotational symmetry number  1.
 Rotational temperature (Kelvin)      2.03910
 Rotational constant (GHZ):          42.488007
 Zero-point vibrational energy      40959.0 (Joules/Mol)
                                    9.78944 (Kcal/Mol)
 Vibrational temperatures:   1008.17  1008.17  2863.43  4972.70
          (Kelvin)

 Zero-point correction=                           0.015600 (Hartree/Particle)
 Thermal correction to Energy=                    0.018186
 Thermal correction to Enthalpy=                  0.019130
 Thermal correction to Gibbs Free Energy=        -0.003829
 Sum of electronic and zero-point Energies=            -93.168059
 Sum of electronic and thermal Energies=               -93.165473
 Sum of electronic and thermal Enthalpies=             -93.164529
 Sum of electronic and thermal Free Energies=          -93.187488

                     E (Thermal)             CV                S
                      KCal/Mol        Cal/Mol-Kelvin    Cal/Mol-Kelvin
 Total                   11.412              6.636             48.322
 Electronic               0.000              0.000              0.000
 Translational            0.889              2.981             35.816
 Rotational               0.592              1.987             11.894
 Vibrational              9.931              1.668              0.612

 Optimization completed.
    -- Stationary point found.
 Normal termination of Gaussian 16 at Tue Aug  4 16:29:34 2020.
