 Gaussian 16, Revision A.03,
 Gaussian 16:  ES64L-G16RevA.03 25-Dec-2016

 ----------------------------------------------
 # MP2/aug-cc-pVTZ opt freq=(vibrot,anharmonic)
 ----------------------------------------------

 ----
 bleh
 ----
 Symbolic Z-matrix:
 Charge =  0 Multiplicity = 1

 SCF Done:  E(RHF) =  -92.7130516490     A.U. after   11 cycles
 E2 =    -0.4412753749D+00 EUMP2 =    -0.93154327023983D+02
 SCF Done:  E(RHF) =  -92.8223571192     A.U. after   11 cycles
 E2 =    -0.3958076579D+00 EUMP2 =    -0.93218164777104D+02
 SCF Done:  E(RHF) =  -92.8970417059     A.U. after   10 cycles
 E2 =    -0.3324833718D+00 EUMP2 =    -0.93229525077699D+02
 SCF Done:  E(RHF) =  -92.9066098687     A.U. after   10 cycles
 E2 =    -0.3530825053D+00 EUMP2 =    -0.93259692374051D+02
 SCF Done:  E(RHF) =  -92.9066548753     A.U. after    7 cycles
 E2 =    -0.3530880708D+00 EUMP2 =    -0.93259742946109D+02
 SCF Done:  E(RHF) =  -92.9066709280     A.U. after    7 cycles
 E2 =    -0.3530789430D+00 EUMP2 =    -0.93259749871007D+02
 Optimization completed.
    -- Stationary point found.
 Normal termination of Gaussian 16 at Mon Dec 20 12:25:53 2021.

 ----------------------------------------------------------------------
 #N Geom=AllCheck Guess=TCheck SCRF=Check GenChk RMP2(FC)/Aug-CC-pVTZ F
 req
 ----------------------------------------------------------------------

 Structure from the checkpoint file:  "/gscratch/scrubbed/gds001/Gau-19422.chk"
 ----
 bleh
 ----
 Charge =  0 Multiplicity = 1

                         Standard orientation:
 ---------------------------------------------------------------------
 Center     Atomic      Atomic             Coordinates (Angstroms)
 Number     Number       Type             X           Y           Z
 ---------------------------------------------------------------------
      1          7           0        0.000000    0.000000    0.659569
      2          6           0        0.000000    0.000000   -0.507490
      3          1           0        0.000000    0.000000   -1.572044
 ---------------------------------------------------------------------

 SCF Done:  E(RHF) =  -92.9066709280     A.U. after    1 cycles
 E2 =    -0.3530789378D+00 EUMP2 =    -0.93259749865773D+02
 E2 =    -0.3530789378D+00 EUMP2 =    -0.93259749865773D+02
 SCF Done:  E(RHF) =  -92.9066654752     A.U. after    8 cycles
 E2 =    -0.3530809039D+00 EUMP2 =    -0.93259746379151D+02
 E2 =    -0.3530809039D+00 EUMP2 =    -0.93259746379151D+02
 SCF Done:  E(RHF) =  -92.9066654752     A.U. after    8 cycles
 E2 =    -0.3530809039D+00 EUMP2 =    -0.93259746379151D+02
 E2 =    -0.3530809039D+00 EUMP2 =    -0.93259746379151D+02
 SCF Done:  E(RHF) =  -92.9066654752     A.U. after    8 cycles
 E2 =    -0.3530809039D+00 EUMP2 =    -0.93259746379151D+02
 E2 =    -0.3530809039D+00 EUMP2 =    -0.93259746379151D+02
 SCF Done:  E(RHF) =  -92.9066654752     A.U. after    8 cycles
 E2 =    -0.3530809039D+00 EUMP2 =    -0.93259746379151D+02
 E2 =    -0.3530809039D+00 EUMP2 =    -0.93259746379151D+02
 SCF Done:  E(RHF) =  -92.9058605520     A.U. after    8 cycles
 E2 =    -0.3538615507D+00 EUMP2 =    -0.93259722102671D+02
 E2 =    -0.3538615507D+00 EUMP2 =    -0.93259722102671D+02
 SCF Done:  E(RHF) =  -92.9074207226     A.U. after    8 cycles
 E2 =    -0.3523016665D+00 EUMP2 =    -0.93259722389068D+02
 E2 =    -0.3523016665D+00 EUMP2 =    -0.93259722389068D+02
 SCF Done:  E(RHF) =  -92.9067558288     A.U. after    8 cycles
 E2 =    -0.3529145804D+00 EUMP2 =    -0.93259670409251D+02
 E2 =    -0.3529145804D+00 EUMP2 =    -0.93259670409251D+02
 SCF Done:  E(RHF) =  -92.9064187079     A.U. after    8 cycles
 E2 =    -0.3532481679D+00 EUMP2 =    -0.93259666875723D+02
 E2 =    -0.3532481679D+00 EUMP2 =    -0.93259666875723D+02

 Alpha  occ. eigenvalues --  -15.60578 -11.29708  -1.23021  -0.81996  -0.58339
 Alpha  occ. eigenvalues --   -0.49256  -0.49256
 Alpha virt. eigenvalues --    0.02305   0.07157   0.07276   0.07276   0.12745
 Alpha virt. eigenvalues --    0.13455   0.13455   0.14600   0.19468   0.19468
 Alpha virt. eigenvalues --    0.22510   0.26638   0.29383   0.29383   0.30277

 Mulliken charges:
               1
     1  N   -0.317439
     2  C   -0.419263
     3  H    0.736702
 Sum of Mulliken charges =  -0.00000

 Dipole moment (field-independent basis, Debye):
    X=              0.0000    Y=             -0.0000    Z=             -3.0108  Tot=              3.0108
 Quadrupole moment (field-independent basis, Debye-Ang):
   XX=            -11.8357   YY=            -11.8357   ZZ=             -9.9804
   XY=             -0.0000   XZ=             -0.0000   YZ=              0.0000

  Exact polarizability:  14.029   0.000  14.029   0.000  -0.000  22.096
 Approx polarizability:  12.736   0.000  12.736  -0.000   0.000  23.299

                      1                      2                      3
                     PI                     PI                     SG
 Frequencies --    717.8432               717.8432              2021.6334
 Red. masses --      1.3374                 1.3374                 5.7285
 Frc consts  --      0.4060                 0.4060                13.7942
 IR Inten    --     36.1115                36.1115                 0.2319

                      4
                     SG
 Frequencies --   3466.5578
 Red. masses --      1.1610
 Frc consts  --      8.2199
 IR Inten    --     77.0386

 - Thermochemistry -
 -------------------
 Temperature   298.150 Kelvin.  Pressure   1.00000 Atm.
 Atom     1 has atomic number  7 and mass  14.00307

 Molecular mass:    27.01090 amu.
 Principal axes and moments of inertia in atomic units:
                           1         2         3
     Eigenvalues --     0.00000  41.36254  41.36254
           X            0.00000  -0.00000   1.00000
           Y            0.00000   1.00000   0.00000
           Z            1.00000   0.00000   0.00000
 This molecule is a prolate symmetric top.
 Rotational symmetry number  1.
 Rotational temperature (Kelvin)      2.09402
 Rotational constant (GHZ):          43.632263
 Zero-point vibrational energy      41414.0 (Joules/Mol)
                                    9.89818 (Kcal/Mol)
 Vibrational temperatures:   1032.82  1032.82  2908.68  4987.60
          (Kelvin)

 Zero-point correction=                           0.015774 (Hartree/Particle)
 Thermal correction to Energy=                    0.018346
 Thermal correction to Enthalpy=                  0.019290
 Thermal correction to Gibbs Free Energy=        -0.003625
 Sum of electronic and zero-point Energies=            -93.243976
 Sum of electronic and thermal Energies=               -93.241404
 Sum of electronic and thermal Enthalpies=             -93.240460
 Sum of electronic and thermal Free Energies=          -93.263375

                     E (Thermal)             CV                S
                      KCal/Mol        Cal/Mol-Kelvin    Cal/Mol-Kelvin
 Total                   11.512              6.570             48.230
 Electronic               0.000              0.000              0.000
 Translational            0.889              2.981             35.816
 Rotational               0.592              1.987             11.841
 Vibrational             10.031              1.602              0.573

 Optimization completed.
    -- Stationary point found.
 Normal termination of Gaussian 16 at Mon Dec 20 12:32:29 2021.
