 Gaussian 16, Revision C.01,
 Gaussian 16:  EM64L-G16RevC.01  3-Jul-2019

 -----------------------------------------
 # mp2/aug-cc-pVDZ freq(vibrot,anharmonic)
 -----------------------------------------

 ----
 blah
 ----
 Symbolic Z-matrix:
 Charge =  0 Multiplicity = 1

                         Standard orientation:
 ---------------------------------------------------------------------
 Center     Atomic      Atomic             Coordinates (Angstroms)
 Number     Number       Type             X           Y           Z
 ---------------------------------------------------------------------
      1          7           0       -0.000003   -0.000002   -0.117029
      2          1           0        0.663873   -0.669263    0.273067
      3          1           0       -0.911538   -0.240279    0.273074
      4          1           0        0.247684    0.909555    0.273064
 ---------------------------------------------------------------------

 SCF Done:  E(RHF) =  -56.2049046247     A.U. after   10 cycles
 E2 =    -0.1999852466D+00 EUMP2 =    -0.56404889871248D+02
 E2 =    -0.1999852466D+00 EUMP2 =    -0.56404889871248D+02
 SCF Done:  E(RHF) =  -56.2049557981     A.U. after    8 cycles
 E2 =    -0.1999267740D+00 EUMP2 =    -0.56404882572193D+02
 E2 =    -0.1999267740D+00 EUMP2 =    -0.56404882572193D+02
 SCF Done:  E(RHF) =  -56.2048329324     A.U. after    8 cycles
 E2 =    -0.2000494689D+00 EUMP2 =    -0.56404882401304D+02
 E2 =    -0.2000494689D+00 EUMP2 =    -0.56404882401304D+02
 SCF Done:  E(RHF) =  -56.2048829870     A.U. after    8 cycles
 E2 =    -0.1999885335D+00 EUMP2 =    -0.56404871520577D+02
 E2 =    -0.1999885335D+00 EUMP2 =    -0.56404871520577D+02
 SCF Done:  E(RHF) =  -56.2048829373     A.U. after    8 cycles
 E2 =    -0.1999885405D+00 EUMP2 =    -0.56404871477799D+02
 E2 =    -0.1999885405D+00 EUMP2 =    -0.56404871477799D+02
 SCF Done:  E(RHF) =  -56.2048828702     A.U. after    8 cycles
 E2 =    -0.1999885482D+00 EUMP2 =    -0.56404871418338D+02
 E2 =    -0.1999885482D+00 EUMP2 =    -0.56404871418338D+02
 SCF Done:  E(RHF) =  -56.2048830535     A.U. after    8 cycles
 E2 =    -0.1999885259D+00 EUMP2 =    -0.56404871579376D+02
 E2 =    -0.1999885259D+00 EUMP2 =    -0.56404871579376D+02
 SCF Done:  E(RHF) =  -56.2043733178     A.U. after    8 cycles
 E2 =    -0.2004357815D+00 EUMP2 =    -0.56404809099357D+02
 E2 =    -0.2004357815D+00 EUMP2 =    -0.56404809099357D+02
 SCF Done:  E(RHF) =  -56.2052699944     A.U. after    8 cycles
 E2 =    -0.1995369314D+00 EUMP2 =    -0.56404806925831D+02
 E2 =    -0.1995369314D+00 EUMP2 =    -0.56404806925831D+02
 SCF Done:  E(RHF) =  -56.2048163687     A.U. after    8 cycles
 E2 =    -0.1999844771D+00 EUMP2 =    -0.56404800845805D+02
 E2 =    -0.1999844771D+00 EUMP2 =    -0.56404800845805D+02
 SCF Done:  E(RHF) =  -56.2048157353     A.U. after    8 cycles
 E2 =    -0.1999845344D+00 EUMP2 =    -0.56404800269693D+02
 E2 =    -0.1999845344D+00 EUMP2 =    -0.56404800269693D+02
 SCF Done:  E(RHF) =  -56.2048153114     A.U. after    8 cycles
 E2 =    -0.1999844840D+00 EUMP2 =    -0.56404799795350D+02
 E2 =    -0.1999844840D+00 EUMP2 =    -0.56404799795350D+02
 SCF Done:  E(RHF) =  -56.2048167900     A.U. after    8 cycles
 E2 =    -0.1999845276D+00 EUMP2 =    -0.56404801317603D+02
 E2 =    -0.1999845276D+00 EUMP2 =    -0.56404801317603D+02

 Alpha  occ. eigenvalues --  -15.55459  -1.14075  -0.62662  -0.62300  -0.42975
 Alpha virt. eigenvalues --    0.03570   0.05989   0.05991   0.15012   0.19703
 Alpha virt. eigenvalues --    0.20189   0.20192   0.29125   0.29329   0.33863
 Alpha virt. eigenvalues --    0.34270   0.34280   0.47096   0.52633   0.53334

 Mulliken charges:
               1
     1  N   -0.052143
     2  H    0.013269
     3  H    0.028134
     4  H    0.010741
 Sum of Mulliken charges =  -0.00000

 Dipole moment (field-independent basis, Debye):
    X=             -0.0032    Y=             -0.0013    Z=              1.5488  Tot=              1.5488
 Quadrupole moment (field-independent basis, Debye-Ang):
   XX=             -6.4741   YY=             -6.4958   ZZ=             -9.6652
   XY=              0.0044   XZ=             -0.0069   YZ=             -0.0028

  Exact polarizability:      13.585       0.025      13.458      -0.053      -0.022      15.082
 Approx polarizability:      10.913       0.021      10.810      -0.046      -0.019      10.499

                      1                      2                      3
                      A                      A                      A
 Frequencies --   1045.4721              1648.9801              1648.9950
 Red. masses --      1.1803                 1.0655                 1.0655
 Frc consts  --      0.7601                 1.7070                 1.7070
 IR Inten    --    131.0228                13.3305                13.3298

                      4                      5                      6
                      A                      A                      A
 Frequencies --   3480.4354              3635.3464              3635.3723
 Red. masses --      1.0270                 1.0889                 1.0889
 Frc consts  --      7.3297                 8.4786                 8.4788
 IR Inten    --      4.6011                 5.0672                 5.0685

 - Thermochemistry -
 -------------------
 Temperature   298.150 Kelvin.  Pressure   1.00000 Atm.
 Atom     1 has atomic number  7 and mass  14.00307

 Molecular mass:    17.02655 amu.
 Principal axes and moments of inertia in atomic units:
                           1         2         3
     Eigenvalues --     6.14854   6.14868   9.59465
           X            1.00000  -0.00000  -0.00000
           Y            0.00000   1.00000  -0.00000
           Z            0.00000   0.00000   1.00000
 This molecule is an asymmetric top.
 Rotational symmetry number  1.
 Rotational temperatures (Kelvin)     14.08692    14.08658     9.02732
 Rotational constants (GHZ):         293.52377   293.51678   188.09880
 Zero-point vibrational energy      90285.8 (Joules/Mol)
                                   21.57882 (Kcal/Mol)
 Vibrational temperatures:   1504.20  2372.51  2372.54  5007.57  5230.45
          (Kelvin)           5230.49

 Zero-point correction=                           0.034388 (Hartree/Particle)
 Thermal correction to Energy=                    0.037257
 Thermal correction to Enthalpy=                  0.038201
 Thermal correction to Gibbs Free Energy=         0.015304
 Sum of electronic and zero-point Energies=            -56.370502
 Sum of electronic and thermal Energies=               -56.367633
 Sum of electronic and thermal Enthalpies=             -56.366689
 Sum of electronic and thermal Free Energies=          -56.389586

                     E (Thermal)             CV                S
                      KCal/Mol        Cal/Mol-Kelvin    Cal/Mol-Kelvin
 Total                   23.379              6.380             48.190
 Electronic               0.000              0.000              0.000
 Translational            0.889              2.981             34.441
 Rotational               0.889              2.981             13.659
 Vibrational             21.601              0.418              0.090

 ## DEPERTURBED TRANSITIONS MOMENTS ##

 Electric dipole : Fundamental Bands
 ------------------------------------------------------------------------

 ## AFTER VARIATIONAL CORRECTION

 Electric dipole : Fundamental Bands
 ------------------------------------------------------------------------

 Optimization completed.
    -- Stationary point found.
 Normal termination of Gaussian 16 at Tue Jun 10 16:42:24 2025.
