 Gaussian 16, Revision C.01,
 Gaussian 16:  EM64L-G16RevC.01  3-Jul-2019

 -----------------------------------------------------
 # mp2/aug-cc-pVTZ opt=(tight) freq(vibrot,anharmonic)
 -----------------------------------------------------

 ----
 blah
 ----
 Symbolic Z-matrix:
 Charge =  0 Multiplicity = 1

 SCF Done:  E(RHF) =  -56.2203273232     A.U. after   10 cycles
 E2 =    -0.2402131968D+00 EUMP2 =    -0.56460540519993D+02
 SCF Done:  E(RHF) =  -56.2203280213     A.U. after    6 cycles
 E2 =    -0.2402128391D+00 EUMP2 =    -0.56460540860420D+02
 SCF Done:  E(RHF) =  -56.2203254136     A.U. after    5 cycles
 E2 =    -0.2402154626D+00 EUMP2 =    -0.56460540876211D+02
 SCF Done:  E(RHF) =  -56.2203246159     A.U. after    4 cycles
 E2 =    -0.2402162653D+00 EUMP2 =    -0.56460540881152D+02
 Optimization completed.
    -- Stationary point found.
 Normal termination of Gaussian 16 at Sun Jun  8 19:19:14 2025.

 ----------------------------------------------------------------------
 #N Geom=AllCheck Guess=TCheck SCRF=Check GenChk RMP2(FC)/Aug-CC-pVTZ F
 req
 ----------------------------------------------------------------------

 Structure from the checkpoint file:  "/scr/Gau-86571.chk"
 ----
 blah
 ----
 Charge =  0 Multiplicity = 1

                         Standard orientation:
 ---------------------------------------------------------------------
 Center     Atomic      Atomic             Coordinates (Angstroms)
 Number     Number       Type             X           Y           Z
 ---------------------------------------------------------------------
      1          7           0        0.000000    0.114000    0.000000
      2          1           0       -0.938074   -0.266006   -0.000000
      3          1           0        0.469037   -0.265995    0.812398
      4          1           0        0.469037   -0.265995   -0.812398
 ---------------------------------------------------------------------

 SCF Done:  E(RHF) =  -56.2203246159     A.U. after    1 cycles
 E2 =    -0.2402162601D+00 EUMP2 =    -0.56460540875926D+02
 E2 =    -0.2402162601D+00 EUMP2 =    -0.56460540875926D+02
 SCF Done:  E(RHF) =  -56.2203774235     A.U. after    8 cycles
 E2 =    -0.2401561829D+00 EUMP2 =    -0.56460533606403D+02
 E2 =    -0.2401561829D+00 EUMP2 =    -0.56460533606403D+02
 SCF Done:  E(RHF) =  -56.2202517417     A.U. after    8 cycles
 E2 =    -0.2402818563D+00 EUMP2 =    -0.56460533598069D+02
 E2 =    -0.2402818563D+00 EUMP2 =    -0.56460533598069D+02
 SCF Done:  E(RHF) =  -56.2203025259     A.U. after    7 cycles
 E2 =    -0.2402195139D+00 EUMP2 =    -0.56460522039821D+02
 E2 =    -0.2402195139D+00 EUMP2 =    -0.56460522039821D+02
 SCF Done:  E(RHF) =  -56.2203025580     A.U. after    7 cycles
 E2 =    -0.2402195117D+00 EUMP2 =    -0.56460522069628D+02
 E2 =    -0.2402195117D+00 EUMP2 =    -0.56460522069628D+02
 SCF Done:  E(RHF) =  -56.2203025418     A.U. after    7 cycles
 E2 =    -0.2402195128D+00 EUMP2 =    -0.56460522054585D+02
 E2 =    -0.2402195128D+00 EUMP2 =    -0.56460522054585D+02
 SCF Done:  E(RHF) =  -56.2203025418     A.U. after    7 cycles
 E2 =    -0.2402195128D+00 EUMP2 =    -0.56460522054585D+02
 E2 =    -0.2402195128D+00 EUMP2 =    -0.56460522054585D+02
 SCF Done:  E(RHF) =  -56.2206006641     A.U. after    8 cycles
 E2 =    -0.2398562261D+00 EUMP2 =    -0.56460456890196D+02
 E2 =    -0.2398562261D+00 EUMP2 =    -0.56460456890196D+02
 SCF Done:  E(RHF) =  -56.2198789516     A.U. after    8 cycles
 E2 =    -0.2405800651D+00 EUMP2 =    -0.56460459016725D+02
 E2 =    -0.2405800651D+00 EUMP2 =    -0.56460459016725D+02
 SCF Done:  E(RHF) =  -56.2202336910     A.U. after    8 cycles
 E2 =    -0.2402163821D+00 EUMP2 =    -0.56460450073075D+02
 E2 =    -0.2402163821D+00 EUMP2 =    -0.56460450073075D+02
 SCF Done:  E(RHF) =  -56.2202353113     A.U. after    8 cycles
 E2 =    -0.2402163029D+00 EUMP2 =    -0.56460451614189D+02
 E2 =    -0.2402163029D+00 EUMP2 =    -0.56460451614189D+02
 SCF Done:  E(RHF) =  -56.2202345001     A.U. after    8 cycles
 E2 =    -0.2402163425D+00 EUMP2 =    -0.56460450842622D+02
 E2 =    -0.2402163425D+00 EUMP2 =    -0.56460450842622D+02
 SCF Done:  E(RHF) =  -56.2202345001     A.U. after    8 cycles
 E2 =    -0.2402163425D+00 EUMP2 =    -0.56460450842621D+02
 E2 =    -0.2402163425D+00 EUMP2 =    -0.56460450842621D+02

 Alpha  occ. eigenvalues --  -15.54172  -1.14248  -0.63068  -0.62700  -0.42933
 Alpha virt. eigenvalues --    0.02954   0.04867   0.04869   0.11787   0.15243
 Alpha virt. eigenvalues --    0.16232   0.16235   0.22108   0.22185   0.23532
 Alpha virt. eigenvalues --    0.23543   0.25459   0.35597   0.35801   0.37059

 Mulliken charges:
               1
     1  N   -0.605002
     2  H    0.201707
     3  H    0.199023
     4  H    0.204272
 Sum of Mulliken charges =  -0.00000

 Dipole moment (field-independent basis, Debye):
    X=             -0.0000    Y=             -1.5192    Z=             -0.0045  Tot=              1.5192
 Quadrupole moment (field-independent basis, Debye-Ang):
   XX=             -6.3839   YY=             -9.5339   ZZ=             -6.3838
   XY=              0.0000   XZ=             -0.0119   YZ=              0.0071

  Exact polarizability:      13.633      -0.000      15.303      -0.066       0.055      13.634
 Approx polarizability:      10.839      -0.000      10.594      -0.054       0.048      10.840

                      1                      2                      3
                     A'                     A'                     A"
 Frequencies --   1037.3946              1668.8924              1668.8986
 Red. masses --      1.1812                 1.0664                 1.0664
 Frc consts  --      0.7490                 1.7500                 1.7500
 IR Inten    --    139.2059                14.3206                14.3205

                      4                      5                      6
                     A'                     A'                     A"
 Frequencies --   3502.9236              3649.8929              3649.9134
 Red. masses --      1.0263                 1.0893                 1.0893
 Frc consts  --      7.4198                 8.5500                 8.5501
 IR Inten    --      3.3893                 8.4049                 8.4055

 - Thermochemistry -
 -------------------
 Temperature   298.150 Kelvin.  Pressure   1.00000 Atm.
 Atom     1 has atomic number  7 and mass  14.00307

 Molecular mass:    17.02655 amu.
 Principal axes and moments of inertia in atomic units:
                           1         2         3
     Eigenvalues --     6.03282   6.03285   9.50122
           X           -0.00000   1.00000  -0.00001
           Y           -0.00000   0.00001   1.00000
           Z            1.00000   0.00000  -0.00000
 This molecule is an asymmetric top.
 Rotational symmetry number  1.
 Rotational temperatures (Kelvin)     14.35711    14.35705     9.11609
 Rotational constants (GHZ):         299.15366   299.15239   189.94840
 Zero-point vibrational energy      90784.1 (Joules/Mol)
                                   21.69792 (Kcal/Mol)
 Vibrational temperatures:   1492.58  2401.16  2401.17  5039.93  5251.38
          (Kelvin)           5251.41

 Zero-point correction=                           0.034578 (Hartree/Particle)
 Thermal correction to Energy=                    0.037447
 Thermal correction to Enthalpy=                  0.038391
 Thermal correction to Gibbs Free Energy=         0.015517
 Sum of electronic and zero-point Energies=            -56.425963
 Sum of electronic and thermal Energies=               -56.423094
 Sum of electronic and thermal Enthalpies=             -56.422150
 Sum of electronic and thermal Free Energies=          -56.445024

                     E (Thermal)             CV                S
                      KCal/Mol        Cal/Mol-Kelvin    Cal/Mol-Kelvin
 Total                   23.498              6.382             48.144
 Electronic               0.000              0.000              0.000
 Translational            0.889              2.981             34.441
 Rotational               0.889              2.981             13.611
 Vibrational             21.721              0.420              0.092

 ## DEPERTURBED TRANSITIONS MOMENTS ##

 Electric dipole : Fundamental Bands
 ------------------------------------------------------------------------

 ## AFTER VARIATIONAL CORRECTION

 Electric dipole : Fundamental Bands
 ------------------------------------------------------------------------

 Optimization completed.
    -- Stationary point found.
 Normal termination of Gaussian 16 at Sun Jun  8 19:25:49 2025.
