 Gaussian 16, Revision A.03,
 Gaussian 16:  ES64L-G16RevA.03 25-Dec-2016

 ----------------------------------------------
 # mp2/aug-cc-pVDZ opt freq=(vibrot,anharmonic)
 ----------------------------------------------

 -------------
 dimethylamine
 -------------
 Symbolic Z-matrix:
 Charge =  0 Multiplicity = 1

 SCF Done:  E(RHF) =  -134.258730317     A.U. after   11 cycles
 E2 =    -0.4894598283D+00 EUMP2 =    -0.13474819014483D+03
 SCF Done:  E(RHF) =  -134.258793603     A.U. after   10 cycles
 E2 =    -0.4908149609D+00 EUMP2 =    -0.13474960856339D+03
 SCF Done:  E(RHF) =  -134.258807676     A.U. after    9 cycles
 E2 =    -0.4908810679D+00 EUMP2 =    -0.13474968874369D+03
 SCF Done:  E(RHF) =  -134.258842427     A.U. after    9 cycles
 E2 =    -0.4908688370D+00 EUMP2 =    -0.13474971126438D+03
 SCF Done:  E(RHF) =  -134.258860323     A.U. after    8 cycles
 E2 =    -0.4908533788D+00 EUMP2 =    -0.13474971370212D+03
 SCF Done:  E(RHF) =  -134.258876637     A.U. after    7 cycles
 E2 =    -0.4908374363D+00 EUMP2 =    -0.13474971407355D+03
 Optimization completed.
    -- Stationary point found.
 Normal termination of Gaussian 16 at Wed Nov 24 11:43:05 2021.

 ----------------------------------------------------------------------
 #N Geom=AllCheck Guess=TCheck SCRF=Check GenChk RMP2(FC)/Aug-CC-pVDZ F
 req
 ----------------------------------------------------------------------

 Structure from the checkpoint file:  "/gscratch/scrubbed/gds001/Gau-108813.chk"
 -------------
 dimethylamine
 -------------
 Charge =  0 Multiplicity = 1

                         Standard orientation:
 ---------------------------------------------------------------------
 Center     Atomic      Atomic             Coordinates (Angstroms)
 Number     Number       Type             X           Y           Z
 ---------------------------------------------------------------------
      1          7           0        0.027890    0.599754    0.000000
      2          6           0        0.027890   -0.226622    1.209899
      3          1           0       -0.809701    1.182224    0.000000
      4          6           0        0.027890   -0.226622   -1.209899
      5          1           0        0.980811   -0.776715   -1.265548
      6          1           0       -0.044723    0.416598   -2.099306
      7          1           0       -0.796193   -0.970398   -1.240362
      8          1           0       -0.044723    0.416598    2.099306
      9          1           0        0.980811   -0.776715    1.265548
     10          1           0       -0.796193   -0.970398    1.240362
 ---------------------------------------------------------------------

 SCF Done:  E(RHF) =  -134.258876637     A.U. after    1 cycles
 E2 =    -0.4908374371D+00 EUMP2 =    -0.13474971407434D+03
 E2 =    -0.4908374371D+00 EUMP2 =    -0.13474971407434D+03
 SCF Done:  E(RHF) =  -134.258875628     A.U. after    7 cycles
 E2 =    -0.4908380851D+00 EUMP2 =    -0.13474971371322D+03
 E2 =    -0.4908380851D+00 EUMP2 =    -0.13474971371322D+03
 SCF Done:  E(RHF) =  -134.258875628     A.U. after    7 cycles
 E2 =    -0.4908380851D+00 EUMP2 =    -0.13474971371322D+03
 E2 =    -0.4908380851D+00 EUMP2 =    -0.13474971371322D+03
 SCF Done:  E(RHF) =  -134.258869995     A.U. after    8 cycles
 E2 =    -0.4908434881D+00 EUMP2 =    -0.13474971348258D+03
 E2 =    -0.4908434881D+00 EUMP2 =    -0.13474971348258D+03
 E2 =    -0.4908325962D+00 EUMP2 =    -0.13474971361669D+03
 E2 =    -0.4908325962D+00 EUMP2 =    -0.13474971361669D+03
 E2 =    -0.4908605199D+00 EUMP2 =    -0.13474971303625D+03
 E2 =    -0.4908605199D+00 EUMP2 =    -0.13474971303625D+03
 E2 =    -0.4908151457D+00 EUMP2 =    -0.13474971307777D+03
 E2 =    -0.4908151457D+00 EUMP2 =    -0.13474971307777D+03
 SCF Done:  E(RHF) =  -134.259009747     A.U. after    9 cycles
 E2 =    -0.4906386323D+00 EUMP2 =    -0.13474964837949D+03
 E2 =    -0.4906386323D+00 EUMP2 =    -0.13474964837949D+03
 SCF Done:  E(RHF) =  -134.258613380     A.U. after    9 cycles
 E2 =    -0.4910359366D+00 EUMP2 =    -0.13474964931648D+03
 E2 =    -0.4910359366D+00 EUMP2 =    -0.13474964931648D+03
 SCF Done:  E(RHF) =  -134.258811709     A.U. after    8 cycles
 E2 =    -0.4908369981D+00 EUMP2 =    -0.13474964870687D+03
 E2 =    -0.4908369981D+00 EUMP2 =    -0.13474964870687D+03
 SCF Done:  E(RHF) =  -134.258811710     A.U. after    8 cycles
 E2 =    -0.4908369972D+00 EUMP2 =    -0.13474964870686D+03
 E2 =    -0.4908369972D+00 EUMP2 =    -0.13474964870686D+03
 SCF Done:  E(RHF) =  -134.258809814     A.U. after    8 cycles
 E2 =    -0.4908366667D+00 EUMP2 =    -0.13474964648117D+03
 E2 =    -0.4908366667D+00 EUMP2 =    -0.13474964648117D+03
 SCF Done:  E(RHF) =  -134.258809815     A.U. after    8 cycles
 E2 =    -0.4908366662D+00 EUMP2 =    -0.13474964648115D+03
 E2 =    -0.4908366662D+00 EUMP2 =    -0.13474964648115D+03
 SCF Done:  E(RHF) =  -134.258845194     A.U. after    8 cycles
 E2 =    -0.4908007576D+00 EUMP2 =    -0.13474964595121D+03
 E2 =    -0.4908007576D+00 EUMP2 =    -0.13474964595121D+03
 SCF Done:  E(RHF) =  -134.258774255     A.U. after    8 cycles
 E2 =    -0.4908727211D+00 EUMP2 =    -0.13474964697569D+03
 E2 =    -0.4908727211D+00 EUMP2 =    -0.13474964697569D+03
 SCF Done:  E(RHF) =  -134.258499949     A.U. after    9 cycles
 E2 =    -0.4911312047D+00 EUMP2 =    -0.13474963115367D+03
 E2 =    -0.4911312047D+00 EUMP2 =    -0.13474963115367D+03
 SCF Done:  E(RHF) =  -134.259083803     A.U. after    9 cycles
 E2 =    -0.4905441760D+00 EUMP2 =    -0.13474962797944D+03
 E2 =    -0.4905441760D+00 EUMP2 =    -0.13474962797944D+03

 Alpha  occ. eigenvalues --  -15.55114 -11.25101 -11.25099  -1.19710  -0.94144
 Alpha  occ. eigenvalues --   -0.85231  -0.65728  -0.60876  -0.58554  -0.53474
 Alpha  occ. eigenvalues --   -0.50854  -0.50173  -0.37064
 Alpha virt. eigenvalues --    0.03630   0.04910   0.05105   0.05750   0.07499
 Alpha virt. eigenvalues --    0.07704   0.08141   0.12015   0.14247   0.14356
 Alpha virt. eigenvalues --    0.16302   0.17243   0.17351   0.17824   0.19774

 Mulliken charges:
               1
     1  N   -0.432830
     2  C    0.658230
     3  H   -0.042195
     4  C    0.658230
     5  H   -0.130566
     6  H   -0.208152
     7  H   -0.082000
     8  H   -0.208152
     9  H   -0.130566
    10  H   -0.082000
 Sum of Mulliken charges =  -0.00000

 Dipole moment (field-independent basis, Debye):
    X=             -0.9804    Y=             -0.5046    Z=             -0.0000  Tot=              1.1026
 Quadrupole moment (field-independent basis, Debye-Ang):
   XX=            -21.4196   YY=            -22.3732   ZZ=            -20.4091
   XY=             -2.2307   XZ=             -0.0000   YZ=             -0.0000

  Exact polarizability:  34.980   0.802  37.694   0.000   0.000  42.566
 Approx polarizability:  30.368  -0.147  31.330  -0.000   0.000  31.378

                      1                      2                      3
                     A"                     A'                     A'
 Frequencies --    230.7238               278.4567               387.8935
 Red. masses --      1.0345                 1.1936                 2.1738
 Frc consts  --      0.0324                 0.0545                 0.1927
 IR Inten    --      0.0865                 1.9035                 4.1037

                      4                      5                      6
                     A'                     A'                     A"
 Frequencies --    802.8795               952.8035              1026.7660
 Red. masses --      1.2787                 2.2350                 1.1723
 Frc consts  --      0.4857                 1.1954                 0.7282
 IR Inten    --     97.4825                 3.0916                 7.1676

                      7                      8                      9
                     A"                     A"                     A'
 Frequencies --   1094.6044              1183.6907              1184.9507
 Red. masses --      1.2760                 3.9289                 1.4910
 Frc consts  --      0.9008                 3.2434                 1.2335
 IR Inten    --      0.1152                28.8124                 8.2171

                     10                     11                     12
                     A'                     A"                     A'
 Frequencies --   1263.5873              1421.7370              1451.2937
 Red. masses --      1.7136                 1.1610                 1.1955
 Frc consts  --      1.6120                 1.3827                 1.4836
 IR Inten    --      0.3432                 1.3873                 0.3148

                     13                     14                     15
                     A"                     A"                     A'
 Frequencies --   1463.6429              1478.0840              1491.1247
 Red. masses --      1.1875                 1.0490                 1.0502
 Frc consts  --      1.4988                 1.3503                 1.3758
 IR Inten    --      5.0156                 2.7122                11.7341

                     16                     17                     18
                     A"                     A'                     A'
 Frequencies --   1506.3640              1507.8045              2992.6086
 Red. masses --      1.0619                 1.0387                 1.0524
 Frc consts  --      1.4196                 1.3913                 5.5531
 IR Inten    --     11.1843                 2.9073               121.7486

                     19                     20                     21
                     A"                     A'                     A"
 Frequencies --   2992.8371              3106.8131              3110.1703
 Red. masses --      1.0512                 1.0813                 1.0836
 Frc consts  --      5.5477                 6.1494                 6.1755
 IR Inten    --     48.0943                47.1250                16.2194

                     22                     23                     24
                     A"                     A'                     A'
 Frequencies --   3162.6511              3163.0725              3535.8518
 Red. masses --      1.1025                 1.1017                 1.0747
 Frc consts  --      6.4972                 6.4943                 7.9160
 IR Inten    --     19.8874                29.8112                 0.7715

 - Thermochemistry -
 -------------------
 Temperature   298.150 Kelvin.  Pressure   1.00000 Atm.
 Atom     1 has atomic number  7 and mass  14.00307

 Molecular mass:    45.05785 amu.
 Principal axes and moments of inertia in atomic units:
                           1         2         3
     Eigenvalues --    53.56299 193.32087 219.81271
           X           -0.00000  -0.12432   0.99224
           Y            0.00000   0.99224   0.12432
           Z            1.00000  -0.00000   0.00000
 This molecule is an asymmetric top.
 Rotational symmetry number  1.
 Rotational temperatures (Kelvin)      1.61705     0.44803     0.39404
 Rotational constants (GHZ):          33.69381     9.33547     8.21036
 Zero-point vibrational energy     243980.8 (Joules/Mol)
                                   58.31282 (Kcal/Mol)
 Warning -- explicit consideration of   3 degrees of freedom as
           vibrations may cause significant error
 Vibrational temperatures:    331.96   400.64   558.09  1155.16  1370.87
          (Kelvin)           1477.29  1574.89  1703.07  1704.88  1818.02
                             2045.56  2088.09  2105.86  2126.63  2145.40
                             2167.32  2169.39  4305.70  4306.03  4470.01
                             4474.84  4550.35  4550.96  5087.30

 Zero-point correction=                           0.092927 (Hartree/Particle)
 Thermal correction to Energy=                    0.097311
 Thermal correction to Enthalpy=                  0.098255
 Thermal correction to Gibbs Free Energy=         0.067470
 Sum of electronic and zero-point Energies=           -134.656787
 Sum of electronic and thermal Energies=              -134.652403
 Sum of electronic and thermal Enthalpies=            -134.651459
 Sum of electronic and thermal Free Energies=         -134.682244

                     E (Thermal)             CV                S
                      KCal/Mol        Cal/Mol-Kelvin    Cal/Mol-Kelvin
 Total                   61.063             13.851             64.792
 Electronic               0.000              0.000              0.000
 Translational            0.889              2.981             37.342
 Rotational               0.889              2.981             22.347
 Vibrational             59.286              7.889              5.103
 Vibration     1          0.652              1.794              1.873
 Vibration     2          0.679              1.713              1.543
 Vibration     3          0.756              1.496              1.008

 ## DEPERTURBED TRANSITIONS MOMENTS ##

 Electric dipole : Fundamental Bands
 ------------------------------------------------------------------------

 ## AFTER VARIATIONAL CORRECTION

 Electric dipole : Fundamental Bands
 ------------------------------------------------------------------------

 Optimization completed.
    -- Stationary point found.
 Normal termination of Gaussian 16 at Wed Nov 24 12:35:22 2021.
