 Gaussian 16, Revision A.03,
 Gaussian 16:  ES64L-G16RevA.03 25-Dec-2016

 ----------------------------------------------
 # MP2/aug-cc-pVTZ opt freq=(vibrot,anharmonic)
 ----------------------------------------------

 ----
 bleh
 ----
 Symbolic Z-matrix:
 Charge =  0 Multiplicity = 1

 SCF Done:  E(RHF) =  -134.292790551     A.U. after   11 cycles
 E2 =    -0.5877487091D+00 EUMP2 =    -0.13488053925970D+03
 SCF Done:  E(RHF) =  -134.294393150     A.U. after    9 cycles
 E2 =    -0.5867929430D+00 EUMP2 =    -0.13488118609278D+03
 SCF Done:  E(RHF) =  -134.294485340     A.U. after    8 cycles
 E2 =    -0.5867128293D+00 EUMP2 =    -0.13488119816891D+03
 SCF Done:  E(RHF) =  -134.294501459     A.U. after    7 cycles
 E2 =    -0.5866985956D+00 EUMP2 =    -0.13488120005469D+03
 SCF Done:  E(RHF) =  -134.294513894     A.U. after    7 cycles
 E2 =    -0.5866864924D+00 EUMP2 =    -0.13488120038623D+03
 Optimization completed.
    -- Stationary point found.
 Normal termination of Gaussian 16 at Tue Nov 30 10:49:26 2021.

 ----------------------------------------------------------------------
 #N Geom=AllCheck Guess=TCheck SCRF=Check GenChk RMP2(FC)/Aug-CC-pVTZ F
 req
 ----------------------------------------------------------------------

 Structure from the checkpoint file:  "/gscratch/scrubbed/gds001/Gau-27137.chk"
 ----
 bleh
 ----
 Charge =  0 Multiplicity = 1

                         Standard orientation:
 ---------------------------------------------------------------------
 Center     Atomic      Atomic             Coordinates (Angstroms)
 Number     Number       Type             X           Y           Z
 ---------------------------------------------------------------------
      1          7           0        0.027510    0.594925    0.000000
      2          6           0        0.027510   -0.225370    1.202379
      3          1           0       -0.794810    1.185493    0.000000
      4          6           0        0.027510   -0.225370   -1.202379
      5          1           0        0.968691   -0.772849   -1.256821
      6          1           0       -0.043120    0.409639   -2.083531
      7          1           0       -0.789511   -0.959556   -1.231099
      8          1           0       -0.043120    0.409639    2.083531
      9          1           0        0.968691   -0.772849    1.256821
     10          1           0       -0.789511   -0.959556    1.231099
 ---------------------------------------------------------------------

 SCF Done:  E(RHF) =  -134.294513894     A.U. after    1 cycles
 E2 =    -0.5866864871D+00 EUMP2 =    -0.13488120038101D+03
 E2 =    -0.5866864871D+00 EUMP2 =    -0.13488120038101D+03
 SCF Done:  E(RHF) =  -134.294513126     A.U. after    7 cycles
 E2 =    -0.5866868930D+00 EUMP2 =    -0.13488120001882D+03
 E2 =    -0.5866868930D+00 EUMP2 =    -0.13488120001882D+03
 SCF Done:  E(RHF) =  -134.294513126     A.U. after    7 cycles
 E2 =    -0.5866868930D+00 EUMP2 =    -0.13488120001882D+03
 E2 =    -0.5866868930D+00 EUMP2 =    -0.13488120001882D+03
 SCF Done:  E(RHF) =  -134.294518419     A.U. after    7 cycles
 E2 =    -0.5866812506D+00 EUMP2 =    -0.13488119966929D+03
 E2 =    -0.5866812506D+00 EUMP2 =    -0.13488119966929D+03
 SCF Done:  E(RHF) =  -134.294507524     A.U. after    7 cycles
 E2 =    -0.5866925642D+00 EUMP2 =    -0.13488120008777D+03
 E2 =    -0.5866925642D+00 EUMP2 =    -0.13488120008777D+03
 E2 =    -0.5867151236D+00 EUMP2 =    -0.13488119935995D+03
 E2 =    -0.5867151236D+00 EUMP2 =    -0.13488119935995D+03
 E2 =    -0.5866585434D+00 EUMP2 =    -0.13488119939215D+03
 E2 =    -0.5866585434D+00 EUMP2 =    -0.13488119939215D+03
 E2 =    -0.5866474704D+00 EUMP2 =    -0.13488119613261D+03
 SCF Done:  E(RHF) =  -134.294329303     A.U. after    8 cycles
 E2 =    -0.5868062303D+00 EUMP2 =    -0.13488113553354D+03
 E2 =    -0.5868062303D+00 EUMP2 =    -0.13488113553354D+03
 SCF Done:  E(RHF) =  -134.294566216     A.U. after    8 cycles
 E2 =    -0.5865685596D+00 EUMP2 =    -0.13488113477522D+03
 E2 =    -0.5865685596D+00 EUMP2 =    -0.13488113477522D+03
 SCF Done:  E(RHF) =  -134.294447908     A.U. after    7 cycles
 E2 =    -0.5866870804D+00 EUMP2 =    -0.13488113498875D+03
 E2 =    -0.5866870804D+00 EUMP2 =    -0.13488113498875D+03
 SCF Done:  E(RHF) =  -134.294447908     A.U. after    7 cycles
 E2 =    -0.5866870807D+00 EUMP2 =    -0.13488113498874D+03
 E2 =    -0.5866870807D+00 EUMP2 =    -0.13488113498874D+03
 SCF Done:  E(RHF) =  -134.294427929     A.U. after    7 cycles
 E2 =    -0.5867051469D+00 EUMP2 =    -0.13488113307618D+03
 E2 =    -0.5867051469D+00 EUMP2 =    -0.13488113307618D+03
 SCF Done:  E(RHF) =  -134.294464061     A.U. after    7 cycles
 E2 =    -0.5866685069D+00 EUMP2 =    -0.13488113256796D+03
 E2 =    -0.5866685069D+00 EUMP2 =    -0.13488113256796D+03
 SCF Done:  E(RHF) =  -134.294446076     A.U. after    7 cycles
 E2 =    -0.5866867385D+00 EUMP2 =    -0.13488113281481D+03
 E2 =    -0.5866867385D+00 EUMP2 =    -0.13488113281481D+03
 SCF Done:  E(RHF) =  -134.294446074     A.U. after    7 cycles
 E2 =    -0.5866867407D+00 EUMP2 =    -0.13488113281494D+03
 E2 =    -0.5866867407D+00 EUMP2 =    -0.13488113281494D+03
 SCF Done:  E(RHF) =  -134.294676971     A.U. after    8 cycles
 E2 =    -0.5864356151D+00 EUMP2 =    -0.13488111258605D+03
 E2 =    -0.5864356151D+00 EUMP2 =    -0.13488111258605D+03
 SCF Done:  E(RHF) =  -134.294178013     A.U. after    8 cycles
 E2 =    -0.5869390716D+00 EUMP2 =    -0.13488111708436D+03
 E2 =    -0.5869390716D+00 EUMP2 =    -0.13488111708436D+03

 Alpha  occ. eigenvalues --  -15.54247 -11.23872 -11.23871  -1.19785  -0.94471
 Alpha  occ. eigenvalues --   -0.85237  -0.65965  -0.61346  -0.58927  -0.53815
 Alpha  occ. eigenvalues --   -0.50951  -0.50478  -0.37017
 Alpha virt. eigenvalues --    0.03015   0.04087   0.04212   0.04635   0.06343
 Alpha virt. eigenvalues --    0.06442   0.06614   0.10250   0.11582   0.12049
 Alpha virt. eigenvalues --    0.13505   0.14200   0.14293   0.14897   0.15793

 Mulliken charges:
               1
     1  N   -0.300145
     2  C   -0.918865
     3  H    0.100316
     4  C   -0.918865
     5  H    0.350507
     6  H    0.349532
     7  H    0.318740
     8  H    0.349532
     9  H    0.350507
    10  H    0.318740
 Sum of Mulliken charges =  -0.00000

 Dipole moment (field-independent basis, Debye):
    X=             -0.9689    Y=             -0.4879    Z=             -0.0000  Tot=              1.0848
 Quadrupole moment (field-independent basis, Debye-Ang):
   XX=            -21.0964   YY=            -21.9954   ZZ=            -20.1151
   XY=             -2.2083   XZ=              0.0000   YZ=              0.0000

  Exact polarizability:  34.539   0.612  37.318  -0.000   0.000  41.910
 Approx polarizability:  29.959  -0.277  30.970   0.000  -0.000  30.862

                      1                      2                      3
                     A"                     A'                     A'
 Frequencies --    232.4063               273.2758               386.1092
 Red. masses --      1.0343                 1.1910                 2.1793
 Frc consts  --      0.0329                 0.0524                 0.1914
 IR Inten    --      0.0790                 1.9695                 4.5885

                      4                      5                      6
                     A'                     A'                     A"
 Frequencies --    793.4568               957.6527              1036.3347
 Red. masses --      1.2678                 2.2924                 1.1696
 Frc consts  --      0.4703                 1.2387                 0.7401
 IR Inten    --     99.8755                 3.9975                 7.5085

                      7                      8                      9
                     A"                     A"                     A'
 Frequencies --   1107.9493              1188.7909              1196.0916
 Red. masses --      1.2819                 3.8657                 1.4820
 Frc consts  --      0.9272                 3.2188                 1.2492
 IR Inten    --      0.0445                29.7340                 7.4964

                     10                     11                     12
                     A'                     A"                     A'
 Frequencies --   1274.8521              1445.8774              1472.5784
 Red. masses --      1.7107                 1.1620                 1.1987
 Frc consts  --      1.6382                 1.4312                 1.5315
 IR Inten    --      0.2575                 1.1874                 0.2756

                     13                     14                     15
                     A"                     A"                     A'
 Frequencies --   1476.3826              1504.7366              1516.6724
 Red. masses --      1.2259                 1.0370                 1.0486
 Frc consts  --      1.5743                 1.3834                 1.4212
 IR Inten    --      5.3040                 3.7844                12.6260

                     16                     17                     18
                     A"                     A'                     A'
 Frequencies --   1529.3445              1535.3952              2997.0316
 Red. masses --      1.0462                 1.0392                 1.0525
 Frc consts  --      1.4417                 1.4434                 5.5698
 IR Inten    --     10.2269                 3.4026               114.1449

                     19                     20                     21
                     A"                     A'                     A"
 Frequencies --   2998.5769              3106.8889              3110.7367
 Red. masses --      1.0513                 1.0805                 1.0829
 Frc consts  --      5.5691                 6.1450                 6.1739
 IR Inten    --     44.5549                40.4165                14.8266

                     22                     23                     24
                     A'                     A"                     A'
 Frequencies --   3161.9193              3162.0598              3557.5698
 Red. masses --      1.1020                 1.1027                 1.0745
 Frc consts  --      6.4913                 6.4959                 8.0125
 IR Inten    --     25.2817                16.7139                 1.8279

 - Thermochemistry -
 -------------------
 Temperature   298.150 Kelvin.  Pressure   1.00000 Atm.
 Atom     1 has atomic number  7 and mass  14.00307

 Molecular mass:    45.05785 amu.
 Principal axes and moments of inertia in atomic units:
                           1         2         3
     Eigenvalues --    52.68742 190.63946 216.91287
           X            0.00000  -0.12376   0.99231
           Y            0.00000   0.99231   0.12376
           Z            1.00000  -0.00000  -0.00000
 This molecule is an asymmetric top.
 Rotational symmetry number  1.
 Rotational temperatures (Kelvin)      1.64392     0.45433     0.39930
 Rotational constants (GHZ):          34.25374     9.46678     8.32012
 Zero-point vibrational energy     245370.2 (Joules/Mol)
                                   58.64488 (Kcal/Mol)
 Warning -- explicit consideration of   3 degrees of freedom as
           vibrations may cause significant error
 Vibrational temperatures:    334.38   393.18   555.52  1141.61  1377.85
          (Kelvin)           1491.05  1594.09  1710.41  1720.91  1834.23
                             2080.30  2118.71  2124.19  2164.98  2182.15
                             2200.39  2209.09  4312.06  4314.28  4470.12
                             4475.66  4549.30  4549.50  5118.55

 Zero-point correction=                           0.093457 (Hartree/Particle)
 Thermal correction to Energy=                    0.097840
 Thermal correction to Enthalpy=                  0.098785
 Thermal correction to Gibbs Free Energy=         0.068015
 Sum of electronic and zero-point Energies=           -134.787744
 Sum of electronic and thermal Energies=              -134.783360
 Sum of electronic and thermal Enthalpies=            -134.782416
 Sum of electronic and thermal Free Energies=         -134.813186

                     E (Thermal)             CV                S
                      KCal/Mol        Cal/Mol-Kelvin    Cal/Mol-Kelvin
 Total                   61.396             13.789             64.761
 Electronic               0.000              0.000              0.000
 Translational            0.889              2.981             37.342
 Rotational               0.889              2.981             22.304
 Vibrational             59.618              7.827              5.115
 Vibration     1          0.653              1.791              1.860
 Vibration     2          0.676              1.723              1.575
 Vibration     3          0.755              1.500              1.015

 ## DEPERTURBED TRANSITIONS MOMENTS ##

 Electric dipole : Fundamental Bands
 ------------------------------------------------------------------------

 ## AFTER VARIATIONAL CORRECTION

 Electric dipole : Fundamental Bands
 ------------------------------------------------------------------------

 Optimization completed.
    -- Stationary point found.
 Normal termination of Gaussian 16 at Wed Dec  1 03:51:43 2021.
