 Gaussian 16, Revision A.03,
 Gaussian 16:  ES64L-G16RevA.03 25-Dec-2016

 ----------------------------------------------
 # MP2/aug-cc-pVTZ opt freq=(vibrot,anharmonic)
 ----------------------------------------------

 ----
 bleh
 ----
 Symbolic Z-matrix:
 Charge =  0 Multiplicity = 1

 SCF Done:  E(RHF) =  -95.2545056412     A.U. after   11 cycles
 E2 =    -0.4118146512D+00 EUMP2 =    -0.95666320292428D+02
 SCF Done:  E(RHF) =  -95.2555930957     A.U. after    9 cycles
 E2 =    -0.4115630955D+00 EUMP2 =    -0.95667156191200D+02
 SCF Done:  E(RHF) =  -95.2556106727     A.U. after    8 cycles
 E2 =    -0.4115761836D+00 EUMP2 =    -0.95667186856224D+02
 SCF Done:  E(RHF) =  -95.2555779916     A.U. after    7 cycles
 E2 =    -0.4116104038D+00 EUMP2 =    -0.95667188395489D+02
 Optimization completed.
    -- Stationary point found.
 Normal termination of Gaussian 16 at Mon Dec 20 12:32:43 2021.

 ----------------------------------------------------------------------
 #N Geom=AllCheck Guess=TCheck SCRF=Check GenChk RMP2(FC)/Aug-CC-pVTZ F
 req
 ----------------------------------------------------------------------

 Structure from the checkpoint file:  "/gscratch/scrubbed/gds001/Gau-22804.chk"
 ----
 bleh
 ----
 Charge =  0 Multiplicity = 1

                         Standard orientation:
 ---------------------------------------------------------------------
 Center     Atomic      Atomic             Coordinates (Angstroms)
 Number     Number       Type             X           Y           Z
 ---------------------------------------------------------------------
      1          7           0        0.749314   -0.000027   -0.122994
      2          6           0       -0.707446   -0.000032    0.017891
      3          1           0       -1.112320   -0.875117   -0.486551
      4          1           0       -1.111550    0.878821   -0.480563
      5          1           0       -1.070112   -0.003336    1.049921
      6          1           0        1.146816   -0.809898    0.335393
      7          1           0        1.146646    0.809914    0.335413
 ---------------------------------------------------------------------

 SCF Done:  E(RHF) =  -95.2555779916     A.U. after    1 cycles
 E2 =    -0.4116104112D+00 EUMP2 =    -0.95667188402853D+02
 E2 =    -0.4116104112D+00 EUMP2 =    -0.95667188402853D+02
 SCF Done:  E(RHF) =  -95.2555759515     A.U. after    7 cycles
 E2 =    -0.4116114261D+00 EUMP2 =    -0.95667187377607D+02
 E2 =    -0.4116114261D+00 EUMP2 =    -0.95667187377607D+02
 SCF Done:  E(RHF) =  -95.2555768968     A.U. after    7 cycles
 E2 =    -0.4116113447D+00 EUMP2 =    -0.95667188241466D+02
 E2 =    -0.4116113447D+00 EUMP2 =    -0.95667188241466D+02
 SCF Done:  E(RHF) =  -95.2556141097     A.U. after    8 cycles
 E2 =    -0.4115682426D+00 EUMP2 =    -0.95667182352304D+02
 E2 =    -0.4115682426D+00 EUMP2 =    -0.95667182352304D+02
 SCF Done:  E(RHF) =  -95.2555280334     A.U. after    8 cycles
 E2 =    -0.4116569123D+00 EUMP2 =    -0.95667184945772D+02
 E2 =    -0.4116569123D+00 EUMP2 =    -0.95667184945772D+02
 SCF Done:  E(RHF) =  -95.2555699720     A.U. after    6 cycles
 E2 =    -0.4116119462D+00 EUMP2 =    -0.95667181918117D+02
 E2 =    -0.4116119462D+00 EUMP2 =    -0.95667181918117D+02
 E2 =    -0.4116116869D+00 EUMP2 =    -0.95667181999405D+02
 E2 =    -0.4116116869D+00 EUMP2 =    -0.95667181999405D+02
 E2 =    -0.4115591666D+00 EUMP2 =    -0.95667179367692D+02
 E2 =    -0.4115591666D+00 EUMP2 =    -0.95667179367692D+02
 SCF Done:  E(RHF) =  -95.2556277903     A.U. after    8 cycles
 E2 =    -0.4114974329D+00 EUMP2 =    -0.95667125223191D+02
 E2 =    -0.4114974329D+00 EUMP2 =    -0.95667125223191D+02
 SCF Done:  E(RHF) =  -95.2554003731     A.U. after    8 cycles
 E2 =    -0.4117262175D+00 EUMP2 =    -0.95667126590607D+02
 E2 =    -0.4117262175D+00 EUMP2 =    -0.95667126590607D+02
 SCF Done:  E(RHF) =  -95.2555788945     A.U. after    8 cycles
 E2 =    -0.4115432435D+00 EUMP2 =    -0.95667122137965D+02
 E2 =    -0.4115432435D+00 EUMP2 =    -0.95667122137965D+02
 SCF Done:  E(RHF) =  -95.2554436169     A.U. after    8 cycles
 E2 =    -0.4116787573D+00 EUMP2 =    -0.95667122374223D+02
 E2 =    -0.4116787573D+00 EUMP2 =    -0.95667122374223D+02
 SCF Done:  E(RHF) =  -95.2555100228     A.U. after    7 cycles
 E2 =    -0.4116105369D+00 EUMP2 =    -0.95667120559644D+02
 E2 =    -0.4116105369D+00 EUMP2 =    -0.95667120559644D+02
 SCF Done:  E(RHF) =  -95.2555098002     A.U. after    7 cycles
 E2 =    -0.4116108052D+00 EUMP2 =    -0.95667120605428D+02
 E2 =    -0.4116108052D+00 EUMP2 =    -0.95667120605428D+02
 SCF Done:  E(RHF) =  -95.2551665484     A.U. after    8 cycles
 E2 =    -0.4119389556D+00 EUMP2 =    -0.95667105504026D+02
 E2 =    -0.4119389556D+00 EUMP2 =    -0.95667105504026D+02
 SCF Done:  E(RHF) =  -95.2558176934     A.U. after    8 cycles
 E2 =    -0.4112846961D+00 EUMP2 =    -0.95667102389419D+02
 E2 =    -0.4112846961D+00 EUMP2 =    -0.95667102389419D+02
 SCF Done:  E(RHF) =  -95.2554888951     A.U. after    8 cycles
 E2 =    -0.4116105528D+00 EUMP2 =    -0.95667099447960D+02
 E2 =    -0.4116105528D+00 EUMP2 =    -0.95667099447960D+02
 SCF Done:  E(RHF) =  -95.2554888373     A.U. after    8 cycles
 E2 =    -0.4116105563D+00 EUMP2 =    -0.95667099393579D+02
 E2 =    -0.4116105563D+00 EUMP2 =    -0.95667099393579D+02

 Alpha  occ. eigenvalues --  -15.53936 -11.24059  -1.16971  -0.89630  -0.66222
 Alpha  occ. eigenvalues --   -0.60366  -0.55659  -0.51737  -0.39141
 Alpha virt. eigenvalues --    0.02954   0.04285   0.04388   0.04919   0.06894
 Alpha virt. eigenvalues --    0.09859   0.12590   0.12739   0.13984   0.14112
 Alpha virt. eigenvalues --    0.15650   0.16790   0.20355   0.22652   0.23774

 Mulliken charges:
               1
     1  N   -0.495140
     2  C   -0.799595
     3  H    0.337691
     4  H    0.338004
     5  H    0.322500
     6  H    0.144774
     7  H    0.151766
 Sum of Mulliken charges =  -0.00000

 Dipole moment (field-independent basis, Debye):
    X=             -0.3071    Y=              0.0038    Z=              1.3201  Tot=              1.3553
 Quadrupole moment (field-independent basis, Debye-Ang):
   XX=            -14.2700   YY=            -12.7960   ZZ=            -15.6967
   XY=              0.0086   XZ=              2.0608   YZ=              0.0085

  Exact polarizability:  28.199   0.077  23.966  -0.446   0.060  24.731
 Approx polarizability:  20.854   0.054  20.466   0.133   0.056  19.813

                      1                      2                      3
                      A                      A                      A
 Frequencies --    296.3753               838.6329               977.0248
 Red. masses --      1.0306                 1.2121                 1.0476
 Frc consts  --      0.0533                 0.5023                 0.5892
 IR Inten    --     31.2204               133.9626                 0.0001

                      4                      5                      6
                      A                      A                      A
 Frequencies --   1077.5601              1180.5344              1352.0339
 Red. masses --      3.6203                 1.3877                 1.3485
 Frc consts  --      2.4767                 1.1394                 1.4524
 IR Inten    --     12.1245                 6.1516                 0.0884

                      7                      8                      9
                      A                      A                      A
 Frequencies --   1466.8632              1522.0403              1541.6953
 Red. masses --      1.1699                 1.0483                 1.0344
 Frc consts  --      1.4831                 1.4308                 1.4485
 IR Inten    --      1.9512                 6.1616                 4.4341

                     10                     11                     12
                      A                      A                      A
 Frequencies --   1659.2404              3040.9335              3128.5996
 Red. masses --      1.0840                 1.0453                 1.0900
 Frc consts  --      1.7583                 5.6949                 6.2858
 IR Inten    --     20.3335                66.4336                25.4409

                     13                     14                     15
                      A                      A                      A
 Frequencies --   3167.8805              3535.0760              3628.5436
 Red. masses --      1.1033                 1.0500                 1.0927
 Frc consts  --      6.5232                 7.7309                 8.4763
 IR Inten    --     20.8854                 0.6805                 5.2392

 - Thermochemistry -
 -------------------
 Temperature   298.150 Kelvin.  Pressure   1.00000 Atm.
 Atom     1 has atomic number  7 and mass  14.00307

 Molecular mass:    31.04220 amu.
 Principal axes and moments of inertia in atomic units:
                           1         2         3
     Eigenvalues --    17.32928  79.06222  82.24774
           X            0.99927   0.00000   0.03808
           Y            0.00000   1.00000  -0.00001
           Z           -0.03808   0.00001   0.99927
 This molecule is an asymmetric top.
 Rotational symmetry number  1.
 Rotational temperatures (Kelvin)      4.99813     1.09552     1.05309
 Rotational constants (GHZ):         104.14406    22.82685    21.94274
 Zero-point vibrational energy     169947.7 (Joules/Mol)
                                   40.61847 (Kcal/Mol)
 Warning -- explicit consideration of   1 degrees of freedom as
           vibrations may cause significant error
 Vibrational temperatures:    426.42  1206.61  1405.72  1550.37  1698.53
          (Kelvin)           1945.28  2110.49  2189.88  2218.16  2387.28
                             4375.23  4501.36  4557.87  5086.19  5220.66

 Zero-point correction=                           0.064730 (Hartree/Particle)
 Thermal correction to Energy=                    0.068166
 Thermal correction to Enthalpy=                  0.069110
 Thermal correction to Gibbs Free Energy=         0.041798
 Sum of electronic and zero-point Energies=            -95.602459
 Sum of electronic and thermal Energies=               -95.599022
 Sum of electronic and thermal Enthalpies=             -95.598078
 Sum of electronic and thermal Free Energies=          -95.625391

                     E (Thermal)             CV                S
                      KCal/Mol        Cal/Mol-Kelvin    Cal/Mol-Kelvin
 Total                   42.775              9.537             57.485
 Electronic               0.000              0.000              0.000
 Translational            0.889              2.981             36.231
 Rotational               0.889              2.981             19.361
 Vibrational             40.998              3.576              1.893
 Vibration     1          0.690              1.680              1.437

 ## DEPERTURBED TRANSITIONS MOMENTS ##

 Electric dipole : Fundamental Bands
 ------------------------------------------------------------------------

 ## AFTER VARIATIONAL CORRECTION

 Electric dipole : Fundamental Bands
 ------------------------------------------------------------------------

                           ! Non-Optimized Parameters !
 Normal termination of Gaussian 16 at Mon Dec 20 14:44:44 2021.
