 Gaussian 16, Revision A.03,
 Gaussian 16:  ES64L-G16RevA.03 25-Dec-2016

 ------------------------------------------
 # MP2/aug-cc-pVDZ opt freq=(vibrot,anharm)
 ------------------------------------------

 ----
 bleh
 ----
 Symbolic Z-matrix:
 Charge =  0 Multiplicity = 1

 SCF Done:  E(RHF) =  -95.2291367571     A.U. after   11 cycles
 E2 =    -0.3430104673D+00 EUMP2 =    -0.95572147224392D+02
 SCF Done:  E(RHF) =  -95.2297661075     A.U. after   10 cycles
 E2 =    -0.3438065580D+00 EUMP2 =    -0.95573572665508D+02
 SCF Done:  E(RHF) =  -95.2300014615     A.U. after    9 cycles
 E2 =    -0.3436344595D+00 EUMP2 =    -0.95573635921044D+02
 SCF Done:  E(RHF) =  -95.2300418778     A.U. after    8 cycles
 E2 =    -0.3435961269D+00 EUMP2 =    -0.95573638004684D+02
 Optimization completed.
    -- Stationary point found.
 Normal termination of Gaussian 16 at Fri Dec 17 14:21:13 2021.

 ----------------------------------------------------------------------
 #N Geom=AllCheck Guess=TCheck SCRF=Check GenChk RMP2(FC)/Aug-CC-pVDZ F
 req
 ----------------------------------------------------------------------

 Structure from the checkpoint file:  "/gscratch/scrubbed/gds001/Gau-23455.chk"
 ----
 bleh
 ----
 Charge =  0 Multiplicity = 1

                         Standard orientation:
 ---------------------------------------------------------------------
 Center     Atomic      Atomic             Coordinates (Angstroms)
 Number     Number       Type             X           Y           Z
 ---------------------------------------------------------------------
      1          7           0        0.754569    0.000003   -0.126078
      2          6           0       -0.711358   -0.000002    0.018409
      3          1           0        1.151211   -0.813432    0.344801
      4          1           0        1.151231    0.813364    0.344871
      5          1           0       -1.118927   -0.886142   -0.489959
      6          1           0       -1.118786    0.886779   -0.488947
      7          1           0       -1.078562   -0.000580    1.061327
 ---------------------------------------------------------------------

 SCF Done:  E(RHF) =  -95.2300418778     A.U. after    1 cycles
 E2 =    -0.3435961256D+00 EUMP2 =    -0.95573638003428D+02
 E2 =    -0.3435961256D+00 EUMP2 =    -0.95573638003428D+02
 SCF Done:  E(RHF) =  -95.2300399472     A.U. after    8 cycles
 E2 =    -0.3435973106D+00 EUMP2 =    -0.95573637257821D+02
 E2 =    -0.3435973106D+00 EUMP2 =    -0.95573637257821D+02
 SCF Done:  E(RHF) =  -95.2300400944     A.U. after    8 cycles
 E2 =    -0.3435973123D+00 EUMP2 =    -0.95573637406645D+02
 E2 =    -0.3435973123D+00 EUMP2 =    -0.95573637406645D+02
 SCF Done:  E(RHF) =  -95.2300810571     A.U. after    9 cycles
 E2 =    -0.3435540945D+00 EUMP2 =    -0.95573635151618D+02
 E2 =    -0.3435540945D+00 EUMP2 =    -0.95573635151618D+02
 SCF Done:  E(RHF) =  -95.2299883393     A.U. after    8 cycles
 E2 =    -0.3436427683D+00 EUMP2 =    -0.95573631107567D+02
 E2 =    -0.3436427683D+00 EUMP2 =    -0.95573631107567D+02
 SCF Done:  E(RHF) =  -95.2300339515     A.U. after    8 cycles
 E2 =    -0.3435976949D+00 EUMP2 =    -0.95573631646453D+02
 E2 =    -0.3435976949D+00 EUMP2 =    -0.95573631646453D+02
 E2 =    -0.3435976911D+00 EUMP2 =    -0.95573631610053D+02
 E2 =    -0.3435976911D+00 EUMP2 =    -0.95573631610053D+02
 E2 =    -0.3436778191D+00 EUMP2 =    -0.95573629741246D+02
 E2 =    -0.3436778191D+00 EUMP2 =    -0.95573629741246D+02
 SCF Done:  E(RHF) =  -95.2301869030     A.U. after    9 cycles
 E2 =    -0.3433876856D+00 EUMP2 =    -0.95573574588646D+02
 E2 =    -0.3433876856D+00 EUMP2 =    -0.95573574588646D+02
 SCF Done:  E(RHF) =  -95.2297714075     A.U. after    9 cycles
 E2 =    -0.3438052172D+00 EUMP2 =    -0.95573576624742D+02
 E2 =    -0.3438052172D+00 EUMP2 =    -0.95573576624742D+02
 SCF Done:  E(RHF) =  -95.2300898866     A.U. after    9 cycles
 E2 =    -0.3434817232D+00 EUMP2 =    -0.95573571609891D+02
 E2 =    -0.3434817232D+00 EUMP2 =    -0.95573571609891D+02
 SCF Done:  E(RHF) =  -95.2298624159     A.U. after    9 cycles
 E2 =    -0.3437095489D+00 EUMP2 =    -0.95573571964787D+02
 E2 =    -0.3437095489D+00 EUMP2 =    -0.95573571964787D+02
 SCF Done:  E(RHF) =  -95.2299747146     A.U. after    8 cycles
 E2 =    -0.3435953923D+00 EUMP2 =    -0.95573570106892D+02
 E2 =    -0.3435953923D+00 EUMP2 =    -0.95573570106892D+02
 SCF Done:  E(RHF) =  -95.2299748336     A.U. after    8 cycles
 E2 =    -0.3435952572D+00 EUMP2 =    -0.95573570090781D+02
 E2 =    -0.3435952572D+00 EUMP2 =    -0.95573570090781D+02
 SCF Done:  E(RHF) =  -95.2295634765     A.U. after    9 cycles
 E2 =    -0.3439896012D+00 EUMP2 =    -0.95573553077719D+02
 E2 =    -0.3439896012D+00 EUMP2 =    -0.95573553077719D+02
 SCF Done:  E(RHF) =  -95.2303522458     A.U. after    9 cycles
 E2 =    -0.3432040619D+00 EUMP2 =    -0.95573556307682D+02
 E2 =    -0.3432040619D+00 EUMP2 =    -0.95573556307682D+02
 SCF Done:  E(RHF) =  -95.2299542656     A.U. after    9 cycles
 E2 =    -0.3435959786D+00 EUMP2 =    -0.95573550244165D+02
 E2 =    -0.3435959786D+00 EUMP2 =    -0.95573550244165D+02
 SCF Done:  E(RHF) =  -95.2299547138     A.U. after    9 cycles
 E2 =    -0.3435950896D+00 EUMP2 =    -0.95573549803409D+02
 E2 =    -0.3435950896D+00 EUMP2 =    -0.95573549803409D+02

 Alpha  occ. eigenvalues --  -15.55122 -11.25310  -1.16747  -0.89329  -0.65754
 Alpha  occ. eigenvalues --   -0.60036  -0.55249  -0.51429  -0.39177
 Alpha virt. eigenvalues --    0.03577   0.05138   0.05373   0.06113   0.08319
 Alpha virt. eigenvalues --    0.11585   0.15161   0.15359   0.17290   0.17573
 Alpha virt. eigenvalues --    0.19574   0.21061   0.27251   0.29489   0.29845

 Mulliken charges:
               1
     1  N   -0.277895
     2  C    0.718652
     3  H   -0.006627
     4  H   -0.027553
     5  H   -0.144308
     6  H   -0.144720
     7  H   -0.117548
 Sum of Mulliken charges =  -0.00000

 Dipole moment (field-independent basis, Debye):
    X=             -0.3121    Y=             -0.0026    Z=              1.3459  Tot=              1.3816
 Quadrupole moment (field-independent basis, Debye-Ang):
   XX=            -14.4953   YY=            -13.0140   ZZ=            -15.9328
   XY=             -0.0083   XZ=              2.1179   YZ=             -0.0082

  Exact polarizability:  28.443  -0.075  24.252  -0.449  -0.063  25.064
 Approx polarizability:  21.105  -0.054  20.769   0.148  -0.058  20.128

                      1                      2                      3
                      A                      A                      A
 Frequencies --    314.8502               849.0177               971.2192
 Red. masses --      1.0315                 1.2113                 1.0500
 Frc consts  --      0.0602                 0.5144                 0.5835
 IR Inten    --     32.0376               127.6622                 0.0112

                      4                      5                      6
                      A                      A                      A
 Frequencies --   1072.2959              1172.5655              1343.1329
 Red. masses --      3.5406                 1.4041                 1.3463
 Frc consts  --      2.3986                 1.1374                 1.4309
 IR Inten    --     11.1981                 6.6351                 0.1056

                      7                      8                      9
                      A                      A                      A
 Frequencies --   1443.5130              1494.4474              1513.8284
 Red. masses --      1.1656                 1.0488                 1.0329
 Frc consts  --      1.4310                 1.3801                 1.3946
 IR Inten    --      2.4907                 5.8854                 3.8389

                     10                     11                     12
                      A                      A                      A
 Frequencies --   1647.1437              3038.5240              3130.2465
 Red. masses --      1.0842                 1.0449                 1.0909
 Frc consts  --      1.7330                 5.6841                 6.2981
 IR Inten    --     19.1646                71.4968                30.0087

                     13                     14                     15
                      A                      A                      A
 Frequencies --   3169.8341              3511.0193              3608.0513
 Red. masses --      1.1029                 1.0507                 1.0920
 Frc consts  --      6.5293                 7.6311                 8.3759
 IR Inten    --     25.0280                 0.8873                 2.6825

 - Thermochemistry -
 -------------------
 Temperature   298.150 Kelvin.  Pressure   1.00000 Atm.
 Atom     1 has atomic number  7 and mass  14.00307

 Molecular mass:    31.04220 amu.
 Principal axes and moments of inertia in atomic units:
                           1         2         3
     Eigenvalues --    17.69545  80.15310  83.29489
           X            0.99924  -0.00000   0.03890
           Y            0.00000   1.00000   0.00000
           Z           -0.03890  -0.00000   0.99924
 This molecule is an asymmetric top.
 Rotational symmetry number  1.
 Rotational temperatures (Kelvin)      4.89470     1.08061     1.03985
 Rotational constants (GHZ):         101.98898    22.51617    21.66689
 Zero-point vibrational energy     169150.1 (Joules/Mol)
                                   40.42785 (Kcal/Mol)
 Warning -- explicit consideration of   1 degrees of freedom as
           vibrations may cause significant error
 Vibrational temperatures:    453.00  1221.55  1397.37  1542.79  1687.06
          (Kelvin)           1932.47  2076.89  2150.18  2178.06  2369.87
                             4371.76  4503.73  4560.68  5051.57  5191.18

 Zero-point correction=                           0.064426 (Hartree/Particle)
 Thermal correction to Energy=                    0.067841
 Thermal correction to Enthalpy=                  0.068786
 Thermal correction to Gibbs Free Energy=         0.041496
 Sum of electronic and zero-point Energies=            -95.509212
 Sum of electronic and thermal Energies=               -95.505797
 Sum of electronic and thermal Enthalpies=             -95.504852
 Sum of electronic and thermal Free Energies=          -95.532142

                     E (Thermal)             CV                S
                      KCal/Mol        Cal/Mol-Kelvin    Cal/Mol-Kelvin
 Total                   42.571              9.530             57.435
 Electronic               0.000              0.000              0.000
 Translational            0.889              2.981             36.231
 Rotational               0.889              2.981             19.408
 Vibrational             40.794              3.568              1.796
 Vibration     1          0.702              1.645              1.337

 ## DEPERTURBED TRANSITIONS MOMENTS ##

 Electric dipole : Fundamental Bands
 ------------------------------------------------------------------------

 ## AFTER VARIATIONAL CORRECTION

 Electric dipole : Fundamental Bands
 ------------------------------------------------------------------------

 Optimization completed.
    -- Stationary point found.
 Normal termination of Gaussian 16 at Fri Dec 17 14:32:26 2021.
