 Gaussian 16, Revision A.03,
 Gaussian 16:  ES64L-G16RevA.03 25-Dec-2016

 ---------------------------------------------
 # MP2/aug-cc-pVDZ Opt Freq(vibrot,anharmonic)
 ---------------------------------------------

 -----
 meome
 -----
 Symbolic Z-matrix:
 Charge =  0 Multiplicity = 1

 SCF Done:  E(RHF) =  -154.085979626     A.U. after   11 cycles
 E2 =    -0.5049331635D+00 EUMP2 =    -0.15459091278909D+03
 SCF Done:  E(RHF) =  -154.085151274     A.U. after    9 cycles
 E2 =    -0.5064218234D+00 EUMP2 =    -0.15459157309732D+03
 SCF Done:  E(RHF) =  -154.085176431     A.U. after    8 cycles
 E2 =    -0.5064277604D+00 EUMP2 =    -0.15459160419117D+03
 SCF Done:  E(RHF) =  -154.085225357     A.U. after    7 cycles
 E2 =    -0.5063808434D+00 EUMP2 =    -0.15459160620043D+03
 Optimization completed.
    -- Stationary point found.
 Normal termination of Gaussian 16 at Thu Aug  6 22:15:59 2020.

 ----------------------------------------------------------------------
 #N Geom=AllCheck Guess=TCheck SCRF=Check GenChk RMP2(FC)/Aug-CC-pVDZ F
 req
 ----------------------------------------------------------------------

 Structure from the checkpoint file:  "meome.chk"
 -----
 meome
 -----
 Charge =  0 Multiplicity = 1

                         Standard orientation:
 ---------------------------------------------------------------------
 Center     Atomic      Atomic             Coordinates (Angstroms)
 Number     Number       Type             X           Y           Z
 ---------------------------------------------------------------------
      1          8           0        0.000000    0.000000    0.607942
      2          6           0        0.000000    1.170592   -0.202468
      3          6           0       -0.000000   -1.170592   -0.202468
      4          1           0       -0.000000   -2.034379    0.475179
      5          1           0        0.899294   -1.209175   -0.846068
      6          1           0       -0.899294   -1.209175   -0.846068
      7          1           0        0.000000    2.034379    0.475179
      8          1           0       -0.899294    1.209175   -0.846068
      9          1           0        0.899294    1.209175   -0.846068
 ---------------------------------------------------------------------

 SCF Done:  E(RHF) =  -154.085225357     A.U. after    1 cycles
 E2 =    -0.5063808441D+00 EUMP2 =    -0.15459160620111D+03
 E2 =    -0.5063808441D+00 EUMP2 =    -0.15459160620111D+03
 SCF Done:  E(RHF) =  -154.085224413     A.U. after    6 cycles
 E2 =    -0.5063815374D+00 EUMP2 =    -0.15459160595053D+03
 E2 =    -0.5063815374D+00 EUMP2 =    -0.15459160595053D+03
 SCF Done:  E(RHF) =  -154.085224413     A.U. after    6 cycles
 E2 =    -0.5063815374D+00 EUMP2 =    -0.15459160595053D+03
 E2 =    -0.5063815374D+00 EUMP2 =    -0.15459160595053D+03
 SCF Done:  E(RHF) =  -154.085224290     A.U. after    7 cycles
 E2 =    -0.5063814576D+00 EUMP2 =    -0.15459160574761D+03
 E2 =    -0.5063814576D+00 EUMP2 =    -0.15459160574761D+03
 SCF Done:  E(RHF) =  -154.085224290     A.U. after    7 cycles
 E2 =    -0.5063814576D+00 EUMP2 =    -0.15459160574762D+03
 E2 =    -0.5063814576D+00 EUMP2 =    -0.15459160574762D+03
 SCF Done:  E(RHF) =  -154.085190388     A.U. after    7 cycles
 E2 =    -0.5064145111D+00 EUMP2 =    -0.15459160489945D+03
 E2 =    -0.5064145111D+00 EUMP2 =    -0.15459160489945D+03
 E2 =    -0.5063480397D+00 EUMP2 =    -0.15459160516138D+03
 E2 =    -0.5063480397D+00 EUMP2 =    -0.15459160516138D+03
 E2 =    -0.5065399904D+00 EUMP2 =    -0.15459160014481D+03
 E2 =    -0.5065399904D+00 EUMP2 =    -0.15459160014481D+03
 SCF Done:  E(RHF) =  -154.085533291     A.U. after    8 cycles
 E2 =    -0.5060110998D+00 EUMP2 =    -0.15459154439080D+03
 E2 =    -0.5060110998D+00 EUMP2 =    -0.15459154439080D+03
 SCF Done:  E(RHF) =  -154.084792508     A.U. after    8 cycles
 E2 =    -0.5067522056D+00 EUMP2 =    -0.15459154471353D+03
 E2 =    -0.5067522056D+00 EUMP2 =    -0.15459154471353D+03
 SCF Done:  E(RHF) =  -154.085161129     A.U. after    8 cycles
 E2 =    -0.5063807804D+00 EUMP2 =    -0.15459154190916D+03
 E2 =    -0.5063807804D+00 EUMP2 =    -0.15459154190916D+03
 SCF Done:  E(RHF) =  -154.085161129     A.U. after    8 cycles
 E2 =    -0.5063807804D+00 EUMP2 =    -0.15459154190916D+03
 E2 =    -0.5063807804D+00 EUMP2 =    -0.15459154190916D+03
 SCF Done:  E(RHF) =  -154.085161250     A.U. after    8 cycles
 E2 =    -0.5063803842D+00 EUMP2 =    -0.15459154163458D+03
 E2 =    -0.5063803842D+00 EUMP2 =    -0.15459154163458D+03
 SCF Done:  E(RHF) =  -154.085161250     A.U. after    8 cycles
 E2 =    -0.5063803842D+00 EUMP2 =    -0.15459154163458D+03
 E2 =    -0.5063803842D+00 EUMP2 =    -0.15459154163458D+03
 SCF Done:  E(RHF) =  -154.085157436     A.U. after    8 cycles
 E2 =    -0.5063803564D+00 EUMP2 =    -0.15459153779224D+03
 E2 =    -0.5063803564D+00 EUMP2 =    -0.15459153779224D+03
 SCF Done:  E(RHF) =  -154.085157436     A.U. after    8 cycles
 E2 =    -0.5063803559D+00 EUMP2 =    -0.15459153779223D+03
 E2 =    -0.5063803559D+00 EUMP2 =    -0.15459153779223D+03
 SCF Done:  E(RHF) =  -154.085259414     A.U. after    8 cycles
 E2 =    -0.5062780718D+00 EUMP2 =    -0.15459153748561D+03
 E2 =    -0.5062780718D+00 EUMP2 =    -0.15459153748561D+03
 SCF Done:  E(RHF) =  -154.085055245     A.U. after    8 cycles
 E2 =    -0.5064827379D+00 EUMP2 =    -0.15459153798273D+03
 E2 =    -0.5064827379D+00 EUMP2 =    -0.15459153798273D+03

 Alpha  occ. eigenvalues --  -20.56731 -11.28143 -11.28141  -1.36967  -0.96338
 Alpha  occ. eigenvalues --   -0.87368  -0.65476  -0.64429  -0.63370  -0.54752
 Alpha  occ. eigenvalues --   -0.52104  -0.48261  -0.42471
 Alpha virt. eigenvalues --    0.03636   0.04864   0.05652   0.05885   0.07449
 Alpha virt. eigenvalues --    0.07991   0.10349   0.14164   0.14503   0.15562
 Alpha virt. eigenvalues --    0.17106   0.17685   0.17786   0.20477   0.22266

 Mulliken charges:
               1
     1  O   -0.650629
     2  C    0.687488
     3  C    0.687488
     4  H   -0.227830
     5  H   -0.067172
     6  H   -0.067172
     7  H   -0.227830
     8  H   -0.067172
     9  H   -0.067172
 Sum of Mulliken charges =  -0.00000

 Dipole moment (field-independent basis, Debye):
    X=             -0.0000    Y=              0.0000    Z=             -1.3705  Tot=              1.3705
 Quadrupole moment (field-independent basis, Debye-Ang):
   XX=            -20.7525   YY=            -17.9015   ZZ=            -21.9695
   XY=              0.0000   XZ=              0.0000   YZ=              0.0000

  Exact polarizability:  30.899   0.000  38.829   0.000  -0.000  31.899
 Approx polarizability:  25.949  -0.000  28.061  -0.000  -0.000  27.043

                      1                      2                      3
                     A2                     B1                     A1
 Frequencies --    195.3383               259.9799               416.2387
 Red. masses --      1.0337                 1.2856                 2.2622
 Frc consts  --      0.0232                 0.0512                 0.2309
 IR Inten    --      0.0000                 5.1339                 2.2768

                      4                      5                      6
                     A1                     B2                     A2
 Frequencies --    939.5062              1110.8886              1154.6661
 Red. masses --      4.2013                 1.7186                 1.2141
 Frc consts  --      2.1849                 1.2496                 0.9537
 IR Inten    --     34.6181                36.3887                 0.0000

                      7                      8                      9
                     B1                     B2                     A1
 Frequencies --   1184.4838              1188.1604              1259.0080
 Red. masses --      1.3541                 3.0886                 1.5876
 Frc consts  --      1.1193                 2.5690                 1.4827
 IR Inten    --      7.2818                96.9103                 6.6816

                     10                     11                     12
                     B2                     A1                     A2
 Frequencies --   1438.7010              1470.7323              1472.8231
 Red. masses --      1.1169                 1.1648                 1.0441
 Frc consts  --      1.3621                 1.4845                 1.3345
 IR Inten    --      2.6597                 0.0020                 0.0000

                     13                     14                     15
                     B1                     B2                     A1
 Frequencies --   1487.1643              1488.0371              1503.4857
 Red. masses --      1.0485                 1.0506                 1.0512
 Frc consts  --      1.3662                 1.3706                 1.4000
 IR Inten    --     12.7901                10.0988                 2.7767

                     16                     17                     18
                     B2                     A1                     B1
 Frequencies --   3014.0181              3020.4509              3084.4953
 Red. masses --      1.0339                 1.0355                 1.1035
 Frc consts  --      5.5336                 5.5658                 6.1856
 IR Inten    --     55.1452                58.7299               108.4003

                     19                     20                     21
                     A2                     B2                     A1
 Frequencies --   3091.0693              3181.6236              3182.9977
 Red. masses --      1.1056                 1.0991                 1.0997
 Frc consts  --      6.2239                 6.5554                 6.5644
 IR Inten    --      0.0000                24.8843                20.3444

 - Thermochemistry -
 -------------------
 Temperature   298.150 Kelvin.  Pressure   1.00000 Atm.
 Atom     1 has atomic number  8 and mass  15.99491

 Molecular mass:    46.04186 amu.
 Principal axes and moments of inertia in atomic units:
                           1         2         3
     Eigenvalues --    47.74587 179.92261 204.38348
           X            0.00000   0.00000   1.00000
           Y            1.00000   0.00000  -0.00000
           Z           -0.00000   1.00000  -0.00000
 This molecule is an asymmetric top.
 Rotational symmetry number  2.
 Rotational temperatures (Kelvin)      1.81406     0.48140     0.42378
 Rotational constants (GHZ):          37.79890    10.03065     8.83017
 Zero-point vibrational energy     210207.0 (Joules/Mol)
                                   50.24068 (Kcal/Mol)
 Warning -- explicit consideration of   3 degrees of freedom as
           vibrations may cause significant error
 Vibrational temperatures:    281.05   374.05   598.87  1351.74  1598.32
          (Kelvin)           1661.31  1704.21  1709.50  1811.43  2069.97
                             2116.06  2119.06  2139.70  2140.95  2163.18
                             4336.50  4345.76  4437.90  4447.36  4577.65
                             4579.62

 Zero-point correction=                           0.080064 (Hartree/Particle)
 Thermal correction to Energy=                    0.084402
 Thermal correction to Enthalpy=                  0.085347
 Thermal correction to Gibbs Free Energy=         0.055276
 Sum of electronic and zero-point Energies=           -154.511543
 Sum of electronic and thermal Energies=              -154.507204
 Sum of electronic and thermal Enthalpies=            -154.506260
 Sum of electronic and thermal Free Energies=         -154.536330

                     E (Thermal)             CV                S
                      KCal/Mol        Cal/Mol-Kelvin    Cal/Mol-Kelvin
 Total                   52.963             13.031             63.288
 Electronic               0.000              0.000              0.000
 Translational            0.889              2.981             37.406
 Rotational               0.889              2.981             20.712
 Vibrational             51.186              7.069              5.170
 Vibration     1          0.636              1.846              2.177
 Vibration     2          0.668              1.746              1.662
 Vibration     3          0.779              1.435              0.905

 ## DEPERTURBED TRANSITIONS MOMENTS ##

 Electric dipole : Fundamental Bands
 ------------------------------------------------------------------------

 ## AFTER VARIATIONAL CORRECTION

 Electric dipole : Fundamental Bands
 ------------------------------------------------------------------------

 Optimization completed.
    -- Stationary point found.
 Normal termination of Gaussian 16 at Thu Aug  6 22:53:23 2020.
