 Gaussian 16, Revision A.03,
 Gaussian 16:  ES64L-G16RevA.03 25-Dec-2016

 ----------------------------------------------
 # mp2/aug-cc-pVTZ opt freq=(vibrot,anharmonic)
 ----------------------------------------------

 -----
 MeOMe
 -----
 Symbolic Z-matrix:
 Charge =  0 Multiplicity = 1

 SCF Done:  E(RHF) =  -154.126452673     A.U. after   10 cycles
 E2 =    -0.6107660179D+00 EUMP2 =    -0.15473721869113D+03
 SCF Done:  E(RHF) =  -154.128328568     A.U. after    9 cycles
 E2 =    -0.6095543754D+00 EUMP2 =    -0.15473788294352D+03
 SCF Done:  E(RHF) =  -154.128478979     A.U. after    8 cycles
 E2 =    -0.6094162822D+00 EUMP2 =    -0.15473789526133D+03
 SCF Done:  E(RHF) =  -154.128509459     A.U. after    7 cycles
 E2 =    -0.6093877766D+00 EUMP2 =    -0.15473789723597D+03
 Optimization completed.
    -- Stationary point found.
 Normal termination of Gaussian 16 at Fri Jun 25 13:07:54 2021.

 ----------------------------------------------------------------------
 #N Geom=AllCheck Guess=TCheck SCRF=Check GenChk RMP2(FC)/Aug-CC-pVTZ F
 req
 ----------------------------------------------------------------------

 Structure from the checkpoint file:  "meome_mp2_avtz_opt_anharm.chk"
 -----
 MeOMe
 -----
 Charge =  0 Multiplicity = 1

                         Standard orientation:
 ---------------------------------------------------------------------
 Center     Atomic      Atomic             Coordinates (Angstroms)
 Number     Number       Type             X           Y           Z
 ---------------------------------------------------------------------
      1          8           0        0.000000    0.000000    0.602457
      2          6           0       -0.000000    1.161862   -0.200222
      3          6           0       -0.000000   -1.161862   -0.200222
      4          1           0        0.000000   -2.018728    0.467585
      5          1           0        0.889248   -1.200367   -0.838042
      6          1           0       -0.889248   -1.200367   -0.838042
      7          1           0        0.000000    2.018728    0.467585
      8          1           0       -0.889248    1.200367   -0.838042
      9          1           0        0.889248    1.200367   -0.838042
 ---------------------------------------------------------------------

 SCF Done:  E(RHF) =  -154.128509459     A.U. after    1 cycles
 E2 =    -0.6093877765D+00 EUMP2 =    -0.15473789723585D+03
 E2 =    -0.6093877765D+00 EUMP2 =    -0.15473789723585D+03
 SCF Done:  E(RHF) =  -154.128508738     A.U. after    6 cycles
 E2 =    -0.6093882030D+00 EUMP2 =    -0.15473789694139D+03
 E2 =    -0.6093882030D+00 EUMP2 =    -0.15473789694139D+03
 SCF Done:  E(RHF) =  -154.128508738     A.U. after    6 cycles
 E2 =    -0.6093882030D+00 EUMP2 =    -0.15473789694139D+03
 E2 =    -0.6093882030D+00 EUMP2 =    -0.15473789694139D+03
 SCF Done:  E(RHF) =  -154.128508571     A.U. after    7 cycles
 E2 =    -0.6093882148D+00 EUMP2 =    -0.15473789678608D+03
 E2 =    -0.6093882148D+00 EUMP2 =    -0.15473789678608D+03
 SCF Done:  E(RHF) =  -154.128508571     A.U. after    7 cycles
 E2 =    -0.6093882148D+00 EUMP2 =    -0.15473789678608D+03
 E2 =    -0.6093882148D+00 EUMP2 =    -0.15473789678608D+03
 SCF Done:  E(RHF) =  -154.128468600     A.U. after    7 cycles
 E2 =    -0.6094276767D+00 EUMP2 =    -0.15473789627627D+03
 E2 =    -0.6094276767D+00 EUMP2 =    -0.15473789627627D+03
 E2 =    -0.6093486448D+00 EUMP2 =    -0.15473789584942D+03
 E2 =    -0.6093486448D+00 EUMP2 =    -0.15473789584942D+03
 E2 =    -0.6092607403D+00 EUMP2 =    -0.15473789201918D+03
 E2 =    -0.6092607403D+00 EUMP2 =    -0.15473789201918D+03
 SCF Done:  E(RHF) =  -154.128218079     A.U. after    8 cycles
 E2 =    -0.6096194175D+00 EUMP2 =    -0.15473783749683D+03
 E2 =    -0.6096194175D+00 EUMP2 =    -0.15473783749683D+03
 SCF Done:  E(RHF) =  -154.128673433     A.U. after    8 cycles
 E2 =    -0.6091599423D+00 EUMP2 =    -0.15473783337498D+03
 E2 =    -0.6091599423D+00 EUMP2 =    -0.15473783337498D+03
 SCF Done:  E(RHF) =  -154.128444378     A.U. after    7 cycles
 E2 =    -0.6093886679D+00 EUMP2 =    -0.15473783304544D+03
 E2 =    -0.6093886679D+00 EUMP2 =    -0.15473783304544D+03
 SCF Done:  E(RHF) =  -154.128444378     A.U. after    7 cycles
 E2 =    -0.6093886679D+00 EUMP2 =    -0.15473783304544D+03
 E2 =    -0.6093886679D+00 EUMP2 =    -0.15473783304544D+03
 SCF Done:  E(RHF) =  -154.128444487     A.U. after    7 cycles
 E2 =    -0.6093882323D+00 EUMP2 =    -0.15473783271889D+03
 E2 =    -0.6093882323D+00 EUMP2 =    -0.15473783271889D+03
 SCF Done:  E(RHF) =  -154.128444487     A.U. after    7 cycles
 E2 =    -0.6093882323D+00 EUMP2 =    -0.15473783271889D+03
 E2 =    -0.6093882323D+00 EUMP2 =    -0.15473783271889D+03
 SCF Done:  E(RHF) =  -154.128440635     A.U. after    7 cycles
 E2 =    -0.6093883231D+00 EUMP2 =    -0.15473782895771D+03
 E2 =    -0.6093883231D+00 EUMP2 =    -0.15473782895771D+03
 SCF Done:  E(RHF) =  -154.128440635     A.U. after    7 cycles
 E2 =    -0.6093883229D+00 EUMP2 =    -0.15473782895770D+03
 E2 =    -0.6093883229D+00 EUMP2 =    -0.15473782895770D+03
 SCF Done:  E(RHF) =  -154.128500937     A.U. after    8 cycles
 E2 =    -0.6093267990D+00 EUMP2 =    -0.15473782773633D+03
 E2 =    -0.6093267990D+00 EUMP2 =    -0.15473782773633D+03
 SCF Done:  E(RHF) =  -154.128380148     A.U. after    8 cycles
 E2 =    -0.6094499611D+00 EUMP2 =    -0.15473783010932D+03
 E2 =    -0.6094499611D+00 EUMP2 =    -0.15473783010932D+03

 Alpha  occ. eigenvalues --  -20.55702 -11.26882 -11.26880  -1.37268  -0.96678
 Alpha  occ. eigenvalues --   -0.87599  -0.66041  -0.64926  -0.63835  -0.55076
 Alpha  occ. eigenvalues --   -0.52401  -0.48368  -0.42572
 Alpha virt. eigenvalues --    0.03035   0.04051   0.04544   0.04744   0.06284
 Alpha virt. eigenvalues --    0.06473   0.08923   0.11899   0.12288   0.12927
 Alpha virt. eigenvalues --    0.14021   0.14358   0.14924   0.17445   0.17467

 Mulliken charges:
               1
     1  O   -0.422227
     2  C   -0.819892
     3  C   -0.819892
     4  H    0.358169
     5  H    0.336418
     6  H    0.336418
     7  H    0.358169
     8  H    0.336418
     9  H    0.336418
 Sum of Mulliken charges =  -0.00000

 Dipole moment (field-independent basis, Debye):
    X=             -0.0000    Y=              0.0000    Z=             -1.3621  Tot=              1.3621
 Quadrupole moment (field-independent basis, Debye-Ang):
   XX=            -20.4166   YY=            -17.6600   ZZ=            -21.6644
   XY=              0.0000   XZ=              0.0000   YZ=              0.0000

  Exact polarizability:  30.436  -0.000  38.123  -0.000  -0.000  31.431
 Approx polarizability:  25.514  -0.000  27.501  -0.000  -0.000  26.573

                      1                      2                      3
                     A2                     B1                     A1
 Frequencies --    209.4682               259.0296               416.7104
 Red. masses --      1.0335                 1.2854                 2.2707
 Frc consts  --      0.0267                 0.0508                 0.2323
 IR Inten    --      0.0000                 4.9827                 2.3929

                      4                      5                      6
                     A1                     B2                     A2
 Frequencies --    957.2480              1130.7885              1173.1652
 Red. masses --      4.1888                 1.6356                 1.2145
 Frc consts  --      2.2614                 1.2322                 0.9848
 IR Inten    --     35.6408                32.0342                 0.0000

                      7                      8                      9
                     B1                     B2                     A1
 Frequencies --   1201.2712              1210.6792              1274.9856
 Red. masses --      1.3537                 3.3782                 1.5805
 Frc consts  --      1.1509                 2.9174                 1.5138
 IR Inten    --      7.0950               104.1416                 6.3428

                     10                     11                     12
                     B2                     A1                     A2
 Frequencies --   1467.0902              1497.5263              1506.9172
 Red. masses --      1.1195                 1.1717                 1.0438
 Frc consts  --      1.4197                 1.5481                 1.3965
 IR Inten    --      2.5001                 0.0162                 0.0000

                     13                     14                     15
                     B1                     B2                     A1
 Frequencies --   1517.5323              1518.8108              1533.2172
 Red. masses --      1.0485                 1.0507                 1.0483
 Frc consts  --      1.4227                 1.4280                 1.4519
 IR Inten    --     13.9459                10.5086                 3.1635

                     16                     17                     18
                     B2                     A1                     B1
 Frequencies --   3018.7457              3024.1592              3082.0856
 Red. masses --      1.0337                 1.0352                 1.1032
 Frc consts  --      5.5503                 5.5783                 6.1742
 IR Inten    --     51.4005                55.8095                98.4742

                     19                     20                     21
                     A2                     B2                     A1
 Frequencies --   3089.7317              3178.7234              3179.4223
 Red. masses --      1.1055                 1.0987                 1.0993
 Frc consts  --      6.2179                 6.5409                 6.5475
 IR Inten    --      0.0000                22.0726                16.7763

 - Thermochemistry -
 -------------------
 Temperature   298.150 Kelvin.  Pressure   1.00000 Atm.
 Atom     1 has atomic number  8 and mass  15.99491

 Molecular mass:    46.04186 amu.
 Principal axes and moments of inertia in atomic units:
                           1         2         3
     Eigenvalues --    46.79061 177.15647 201.17939
           X            0.00000   0.00000   1.00000
           Y            1.00000   0.00000  -0.00000
           Z           -0.00000   1.00000  -0.00000
 This molecule is an asymmetric top.
 Rotational symmetry number  2.
 Rotational temperatures (Kelvin)      1.85110     0.48891     0.43053
 Rotational constants (GHZ):          38.57059    10.18727     8.97081
 Zero-point vibrational energy     212022.0 (Joules/Mol)
                                   50.67447 (Kcal/Mol)
 Warning -- explicit consideration of   3 degrees of freedom as
           vibrations may cause significant error
 Vibrational temperatures:    301.38   372.69   599.55  1377.27  1626.95
          (Kelvin)           1687.92  1728.36  1741.90  1834.42  2110.82
                             2154.61  2168.12  2183.39  2185.23  2205.96
                             4343.30  4351.09  4434.43  4445.43  4573.47
                             4574.48

 Zero-point correction=                           0.080755 (Hartree/Particle)
 Thermal correction to Energy=                    0.085059
 Thermal correction to Enthalpy=                  0.086003
 Thermal correction to Gibbs Free Energy=         0.056032
 Sum of electronic and zero-point Energies=           -154.657142
 Sum of electronic and thermal Energies=              -154.652838
 Sum of electronic and thermal Enthalpies=            -154.651894
 Sum of electronic and thermal Free Energies=         -154.681865

                     E (Thermal)             CV                S
                      KCal/Mol        Cal/Mol-Kelvin    Cal/Mol-Kelvin
 Total                   53.375             12.877             63.079
 Electronic               0.000              0.000              0.000
 Translational            0.889              2.981             37.406
 Rotational               0.889              2.981             20.661
 Vibrational             51.598              6.915              5.012
 Vibration     1          0.642              1.826              2.048
 Vibration     2          0.668              1.747              1.668
 Vibration     3          0.780              1.434              0.903

 ## DEPERTURBED TRANSITIONS MOMENTS ##

 Electric dipole : Fundamental Bands
 ------------------------------------------------------------------------

 ## AFTER VARIATIONAL CORRECTION

 Electric dipole : Fundamental Bands
 ------------------------------------------------------------------------

 Optimization completed.
    -- Stationary point found.
 Normal termination of Gaussian 16 at Sat Jun 26 00:20:06 2021.
