 Gaussian 16, Revision C.01,
 Gaussian 16:  EM64L-G16RevC.01  3-Jul-2019

 ----------------------------------------------
 # MP2/aug-cc-pVDZ opt freq=(vibrot,anharmonic)
 ----------------------------------------------

 ----
 blah
 ----
 Symbolic Z-matrix:
 Charge =  0 Multiplicity = 1

 SCF Done:  E(RHF) =  -208.838013248     A.U. after   13 cycles
 E2 =    -0.7236898465D+00 EUMP2 =    -0.20956170309412D+03
 SCF Done:  E(RHF) =  -208.835296643     A.U. after   11 cycles
 E2 =    -0.7277013637D+00 EUMP2 =    -0.20956299800672D+03
 SCF Done:  E(RHF) =  -208.835485737     A.U. after    9 cycles
 E2 =    -0.7275327778D+00 EUMP2 =    -0.20956301851433D+03
 Optimization completed.
    -- Stationary point found.
 Normal termination of Gaussian 16 at Fri Apr  4 10:39:17 2025.

 ----------------------------------------------------------------------
 #N Geom=AllCheck Guess=TCheck SCRF=Check GenChk RMP2(FC)/Aug-CC-pVDZ F
 req
 ----------------------------------------------------------------------

 Structure from the checkpoint file:  "/scr/Gau-78312.chk"
 ----
 blah
 ----
 Charge =  0 Multiplicity = 1

                         Standard orientation:
 ---------------------------------------------------------------------
 Center     Atomic      Atomic             Coordinates (Angstroms)
 Number     Number       Type             X           Y           Z
 ---------------------------------------------------------------------
      1          6           0        0.000000    0.715045   -0.994214
      2          6           0        0.000001    1.132818    0.339098
      3          1           0       -0.000000    1.370763   -1.863737
      4          7           0       -0.000000   -0.000000    1.127007
      5          1           0        0.000002    2.127133    0.780330
      6          6           0       -0.000001   -1.132818    0.339098
      7          1           0       -0.000000   -0.000000    2.139158
      8          6           0       -0.000000   -0.715045   -0.994214
      9          1           0       -0.000002   -2.127133    0.780330
     10          1           0        0.000000   -1.370763   -1.863737
 ---------------------------------------------------------------------

 SCF Done:  E(RHF) =  -208.835485737     A.U. after    1 cycles
 E2 =    -0.7275327756D+00 EUMP2 =    -0.20956301851212D+03
 E2 =    -0.7275327756D+00 EUMP2 =    -0.20956301851212D+03
 SCF Done:  E(RHF) =  -208.835482625     A.U. after    9 cycles
 E2 =    -0.7275341067D+00 EUMP2 =    -0.20956301673196D+03
 E2 =    -0.7275341067D+00 EUMP2 =    -0.20956301673196D+03
 SCF Done:  E(RHF) =  -208.835482625     A.U. after    9 cycles
 E2 =    -0.7275341067D+00 EUMP2 =    -0.20956301673196D+03
 E2 =    -0.7275341067D+00 EUMP2 =    -0.20956301673195D+03
 SCF Done:  E(RHF) =  -208.835482507     A.U. after    7 cycles
 E2 =    -0.7275335019D+00 EUMP2 =    -0.20956301600915D+03
 E2 =    -0.7275335019D+00 EUMP2 =    -0.20956301600915D+03
 SCF Done:  E(RHF) =  -208.835482503     A.U. after    7 cycles
 E2 =    -0.7275335025D+00 EUMP2 =    -0.20956301600587D+03
 E2 =    -0.7275335025D+00 EUMP2 =    -0.20956301600587D+03
 SCF Done:  E(RHF) =  -208.835482150     A.U. after    7 cycles
 E2 =    -0.7275336292D+00 EUMP2 =    -0.20956301577875D+03
 E2 =    -0.7275336292D+00 EUMP2 =    -0.20956301577874D+03
 SCF Done:  E(RHF) =  -208.835482150     A.U. after    7 cycles
 E2 =    -0.7275336292D+00 EUMP2 =    -0.20956301577875D+03
 E2 =    -0.7275336292D+00 EUMP2 =    -0.20956301577875D+03
 E2 =    -0.7275347011D+00 EUMP2 =    -0.20956301552091D+03
 E2 =    -0.7275347011D+00 EUMP2 =    -0.20956301552091D+03
 E2 =    -0.7275347012D+00 EUMP2 =    -0.20956301552077D+03
 SCF Done:  E(RHF) =  -208.835413337     A.U. after    9 cycles
 E2 =    -0.7275328432D+00 EUMP2 =    -0.20956294618072D+03
 E2 =    -0.7275328432D+00 EUMP2 =    -0.20956294618072D+03
 SCF Done:  E(RHF) =  -208.835413337     A.U. after    9 cycles
 E2 =    -0.7275328432D+00 EUMP2 =    -0.20956294618072D+03
 E2 =    -0.7275328432D+00 EUMP2 =    -0.20956294618072D+03
 SCF Done:  E(RHF) =  -208.835360347     A.U. after    9 cycles
 E2 =    -0.7275857214D+00 EUMP2 =    -0.20956294606815D+03
 E2 =    -0.7275857214D+00 EUMP2 =    -0.20956294606815D+03
 SCF Done:  E(RHF) =  -208.835465054     A.U. after    9 cycles
 E2 =    -0.7274802284D+00 EUMP2 =    -0.20956294528278D+03
 E2 =    -0.7274802284D+00 EUMP2 =    -0.20956294528278D+03
 SCF Done:  E(RHF) =  -208.835411944     A.U. after    9 cycles
 E2 =    -0.7275330419D+00 EUMP2 =    -0.20956294498593D+03
 E2 =    -0.7275330419D+00 EUMP2 =    -0.20956294498593D+03
 SCF Done:  E(RHF) =  -208.835411944     A.U. after    9 cycles
 E2 =    -0.7275330423D+00 EUMP2 =    -0.20956294498593D+03
 E2 =    -0.7275330423D+00 EUMP2 =    -0.20956294498593D+03
 SCF Done:  E(RHF) =  -208.835684118     A.U. after    9 cycles
 E2 =    -0.7272603900D+00 EUMP2 =    -0.20956294450794D+03
 E2 =    -0.7272603900D+00 EUMP2 =    -0.20956294450794D+03
 SCF Done:  E(RHF) =  -208.835139315     A.U. after    9 cycles
 E2 =    -0.7278055970D+00 EUMP2 =    -0.20956294491191D+03
 E2 =    -0.7278055970D+00 EUMP2 =    -0.20956294491191D+03
 SCF Done:  E(RHF) =  -208.835718908     A.U. after   10 cycles
 E2 =    -0.7272060520D+00 EUMP2 =    -0.20956292496042D+03
 E2 =    -0.7272060520D+00 EUMP2 =    -0.20956292496041D+03
 SCF Done:  E(RHF) =  -208.835068491     A.U. after   10 cycles
 E2 =    -0.7278612087D+00 EUMP2 =    -0.20956292969973D+03
 E2 =    -0.7278612087D+00 EUMP2 =    -0.20956292969973D+03

 Alpha  occ. eigenvalues --  -15.61821 -11.26427 -11.26423 -11.22243 -11.22145
 Alpha  occ. eigenvalues --   -1.28705  -1.03783  -0.97407  -0.78966  -0.76494
 Alpha  occ. eigenvalues --   -0.73185  -0.58840  -0.58193  -0.56209  -0.54397
 Alpha  occ. eigenvalues --   -0.52695  -0.34502  -0.29473
 Alpha virt. eigenvalues --    0.03142   0.04357   0.04618   0.06057   0.06428
 Alpha virt. eigenvalues --    0.10057   0.12209   0.12584   0.13854   0.14427
 Alpha virt. eigenvalues --    0.14449   0.14632   0.15255   0.15531   0.16722

 Mulliken charges:
               1
     1  C    0.439185
     2  C    0.377797
     3  H   -0.337480
     4  N   -0.270438
     5  H   -0.301336
     6  C    0.377797
     7  H   -0.085894
     8  C    0.439185
     9  H   -0.301336
    10  H   -0.337480
 Sum of Mulliken charges =  -0.00000

 Dipole moment (field-independent basis, Debye):
    X=              0.0000    Y=              0.0000    Z=              1.9198  Tot=              1.9198
 Quadrupole moment (field-independent basis, Debye-Ang):
   XX=            -35.3065   YY=            -27.9534   ZZ=            -24.5464
   XY=              0.0000   XZ=             -0.0000   YZ=             -0.0000

  Exact polarizability:      40.270       0.000      64.825      -0.000       0.000      62.124
 Approx polarizability:      40.188       0.000      58.367      -0.000       0.000      59.084

                      1                      2                      3
                      B                      A                      B
 Frequencies --    513.1498               608.6852               636.3762
 Red. masses --      1.6247                 3.8035                 2.2325
 Frc consts  --      0.2521                 0.8303                 0.5327
 IR Inten    --     59.4212                 0.0000                 1.4129

                      4                      5                      6
                      A                      B                      B
 Frequencies --    665.1406               719.0033               792.5118
 Red. masses --      1.3101                 1.1585                 1.1695
 Frc consts  --      0.3415                 0.3529                 0.4328
 IR Inten    --      0.0000               176.9275                 2.7262

                      7                      8                      9
                      A                      B                      A
 Frequencies --    817.3551               858.8134               882.2963
 Red. masses --      1.2019                 5.1202                 3.8100
 Frc consts  --      0.4731                 2.2250                 1.7474
 IR Inten    --      0.0000                 1.1486                 0.2201

                     10                     11                     12
                      A                      B                      A
 Frequencies --   1036.0593              1056.0974              1096.3125
 Red. masses --      1.3894                 1.3381                 1.3593
 Frc consts  --      0.8787                 0.8793                 0.9626
 IR Inten    --     28.1549                23.7856                 4.2358

                     13                     14                     15
                      B                      A                      B
 Frequencies --   1157.2849              1166.9932              1292.0909
 Red. masses --      1.1927                 5.1663                 1.3581
 Frc consts  --      0.9412                 4.1454                 1.3359
 IR Inten    --      2.7125                 2.3356                 1.5169

                     16                     17                     18
                      A                      B                      A
 Frequencies --   1429.9421              1479.6612              1495.6056
 Red. masses --      4.1348                 3.7500                 3.0952
 Frc consts  --      4.9813                 4.8374                 4.0791
 IR Inten    --      1.5506                10.5508                11.6794

                     19                     20                     21
                      B                      B                      A
 Frequencies --   1545.6976              3271.6276              3283.0544
 Red. masses --      3.1509                 1.0887                 1.0938
 Frc consts  --      4.4355                 6.8654                 6.9464
 IR Inten    --      0.3155                 1.7974                 1.6021

                     22                     23                     24
                      B                      A                      A
 Frequencies --   3298.5009              3304.7500              3672.8414
 Red. masses --      1.1008                 1.1087                 1.0819
 Frc consts  --      7.0568                 7.1342                 8.5992
 IR Inten    --      1.4224                 0.0263                76.2802

 - Thermochemistry -
 -------------------
 Temperature   298.150 Kelvin.  Pressure   1.00000 Atm.
 Atom     1 has atomic number  6 and mass  12.00000

 Molecular mass:    67.04220 amu.
 Principal axes and moments of inertia in atomic units:
                           1         2         3
     Eigenvalues --   199.89811 203.94087 403.83898
           X            0.00000   0.00000   1.00000
           Y            0.00000   1.00000  -0.00000
           Z            1.00000   0.00000   0.00000
 This molecule is an asymmetric top.
 Rotational symmetry number  2.
 Rotational temperatures (Kelvin)      0.43329     0.42470     0.21448
 Rotational constants (GHZ):           9.02831     8.84934     4.46896
 Zero-point vibrational energy     215805.4 (Joules/Mol)
                                   51.57874 (Kcal/Mol)
 Warning -- explicit consideration of   2 degrees of freedom as
           vibrations may cause significant error
 Vibrational temperatures:    738.31   875.76   915.60   956.99  1034.49
          (Kelvin)           1140.25  1175.99  1235.64  1269.43  1490.66
                             1519.49  1577.35  1665.07  1679.04  1859.03
                             2057.37  2128.90  2151.84  2223.91  4707.14
                             4723.58  4745.81  4754.80  5284.40

 Zero-point correction=                           0.082196 (Hartree/Particle)
 Thermal correction to Energy=                    0.086205
 Thermal correction to Enthalpy=                  0.087150
 Thermal correction to Gibbs Free Energy=         0.056426
 Sum of electronic and zero-point Energies=           -209.480823
 Sum of electronic and thermal Energies=              -209.476813
 Sum of electronic and thermal Enthalpies=            -209.475869
 Sum of electronic and thermal Free Energies=         -209.506593

                     E (Thermal)             CV                S
                      KCal/Mol        Cal/Mol-Kelvin    Cal/Mol-Kelvin
 Total                   54.095             15.084             64.664
 Electronic               0.000              0.000              0.000
 Translational            0.889              2.981             38.526
 Rotational               0.889              2.981             22.936
 Vibrational             52.317              9.122              3.202
 Vibration     1          0.868              1.221              0.626
 Vibration     2          0.968              1.013              0.435

 ## DEPERTURBED TRANSITIONS MOMENTS ##

 Electric dipole : Fundamental Bands
 ------------------------------------------------------------------------

 ## AFTER VARIATIONAL CORRECTION

 Electric dipole : Fundamental Bands
 ------------------------------------------------------------------------

 Optimization completed.
    -- Stationary point found.
 Normal termination of Gaussian 16 at Fri Apr  4 12:14:23 2025.
