 Gaussian 16, Revision C.01,
 Gaussian 16:  EM64L-G16RevC.01  3-Jul-2019

 ----------------------------------------------
 # MP2/aug-cc-pVDZ opt freq=(vibrot,anharmonic)
 ----------------------------------------------

 ----
 blah
 ----
 Symbolic Z-matrix:
 Charge =  0 Multiplicity = 1

 SCF Done:  E(RHF) =  -133.085992200     A.U. after   12 cycles
 E2 =    -0.4631872536D+00 EUMP2 =    -0.13354917945361D+03
 SCF Done:  E(RHF) =  -133.085489279     A.U. after   11 cycles
 E2 =    -0.4654427845D+00 EUMP2 =    -0.13355093206340D+03
 SCF Done:  E(RHF) =  -133.085690010     A.U. after   10 cycles
 E2 =    -0.4652795217D+00 EUMP2 =    -0.13355096953179D+03
 SCF Done:  E(RHF) =  -133.085700888     A.U. after    8 cycles
 E2 =    -0.4652705895D+00 EUMP2 =    -0.13355097147754D+03
 Optimization completed.
    -- Stationary point found.
 Normal termination of Gaussian 16 at Fri Apr  4 13:11:22 2025.

 ----------------------------------------------------------------------
 #N Geom=AllCheck Guess=TCheck SCRF=Check GenChk RMP2(FC)/Aug-CC-pVDZ F
 req
 ----------------------------------------------------------------------

 Structure from the checkpoint file:  "/scr/Gau-78144.chk"
 ----
 blah
 ----
 Charge =  0 Multiplicity = 1

                         Standard orientation:
 ---------------------------------------------------------------------
 Center     Atomic      Atomic             Coordinates (Angstroms)
 Number     Number       Type             X           Y           Z
 ---------------------------------------------------------------------
      1          6           0        1.282042    0.007415    0.000000
      2          6           0        0.000000   -0.436984    0.000000
      3          1           0        1.524285    1.073502    0.000000
      4          1           0        2.099872   -0.711984    0.000000
      5          7           0       -1.139649    0.348451   -0.000000
      6          1           0       -0.205539   -1.511934    0.000000
      7          1           0       -1.077058    1.355608   -0.000000
      8          1           0       -2.056267   -0.066935   -0.000000
 ---------------------------------------------------------------------

 SCF Done:  E(RHF) =  -133.085700888     A.U. after    1 cycles
 E2 =    -0.4652705911D+00 EUMP2 =    -0.13355097147909D+03
 E2 =    -0.4652705911D+00 EUMP2 =    -0.13355097147909D+03
 ******    1 imaginary frequencies (negative Signs) ******
    1 imaginary frequencies ignored.
 SCF Done:  E(RHF) =  -133.085701080     A.U. after    9 cycles
 E2 =    -0.4652717585D+00 EUMP2 =    -0.13355097283812D+03
 E2 =    -0.4652717585D+00 EUMP2 =    -0.13355097283812D+03
 SCF Done:  E(RHF) =  -133.085701080     A.U. after    9 cycles
 E2 =    -0.4652717585D+00 EUMP2 =    -0.13355097283812D+03
 E2 =    -0.4652717585D+00 EUMP2 =    -0.13355097283812D+03
 SCF Done:  E(RHF) =  -133.085698561     A.U. after    8 cycles
 E2 =    -0.4652719136D+00 EUMP2 =    -0.13355097047468D+03
 E2 =    -0.4652719136D+00 EUMP2 =    -0.13355097047468D+03
 SCF Done:  E(RHF) =  -133.085698561     A.U. after    8 cycles
 E2 =    -0.4652719136D+00 EUMP2 =    -0.13355097047468D+03
 E2 =    -0.4652719136D+00 EUMP2 =    -0.13355097047468D+03
 SCF Done:  E(RHF) =  -133.085700231     A.U. after    9 cycles
 E2 =    -0.4652698196D+00 EUMP2 =    -0.13355097005018D+03
 E2 =    -0.4652698196D+00 EUMP2 =    -0.13355097005018D+03
 E2 =    -0.4652726129D+00 EUMP2 =    -0.13355097021939D+03
 E2 =    -0.4652726129D+00 EUMP2 =    -0.13355097021939D+03
 E2 =    -0.4652716301D+00 EUMP2 =    -0.13355096825115D+03
 E2 =    -0.4652716301D+00 EUMP2 =    -0.13355096825115D+03
 SCF Done:  E(RHF) =  -133.085470059     A.U. after    9 cycles
 E2 =    -0.4654331110D+00 EUMP2 =    -0.13355090316953D+03
 E2 =    -0.4654331110D+00 EUMP2 =    -0.13355090316953D+03
 SCF Done:  E(RHF) =  -133.085793761     A.U. after    9 cycles
 E2 =    -0.4651083067D+00 EUMP2 =    -0.13355090206815D+03
 E2 =    -0.4651083067D+00 EUMP2 =    -0.13355090206815D+03
 SCF Done:  E(RHF) =  -133.085796302     A.U. after    9 cycles
 E2 =    -0.4651032944D+00 EUMP2 =    -0.13355089959670D+03
 E2 =    -0.4651032944D+00 EUMP2 =    -0.13355089959670D+03
 SCF Done:  E(RHF) =  -133.085464969     A.U. after    9 cycles
 E2 =    -0.4654384433D+00 EUMP2 =    -0.13355090341208D+03
 E2 =    -0.4654384433D+00 EUMP2 =    -0.13355090341208D+03
 SCF Done:  E(RHF) =  -133.085683005     A.U. after    9 cycles
 E2 =    -0.4652141128D+00 EUMP2 =    -0.13355089711777D+03
 E2 =    -0.4652141128D+00 EUMP2 =    -0.13355089711777D+03
 SCF Done:  E(RHF) =  -133.085571753     A.U. after    9 cycles
 E2 =    -0.4653261926D+00 EUMP2 =    -0.13355089794606D+03
 E2 =    -0.4653261926D+00 EUMP2 =    -0.13355089794606D+03
 SCF Done:  E(RHF) =  -133.085203099     A.U. after    9 cycles
 E2 =    -0.4656798200D+00 EUMP2 =    -0.13355088291934D+03
 E2 =    -0.4656798200D+00 EUMP2 =    -0.13355088291934D+03
 SCF Done:  E(RHF) =  -133.086017310     A.U. after    9 cycles
 E2 =    -0.4648628796D+00 EUMP2 =    -0.13355088018946D+03
 E2 =    -0.4648628796D+00 EUMP2 =    -0.13355088018946D+03
 SCF Done:  E(RHF) =  -133.085656114     A.U. after    9 cycles
 E2 =    -0.4652181317D+00 EUMP2 =    -0.13355087424551D+03
 E2 =    -0.4652181317D+00 EUMP2 =    -0.13355087424551D+03
 SCF Done:  E(RHF) =  -133.085550751     A.U. after    9 cycles
 E2 =    -0.4653232940D+00 EUMP2 =    -0.13355087404492D+03
 E2 =    -0.4653232940D+00 EUMP2 =    -0.13355087404492D+03

 Alpha  occ. eigenvalues --  -15.57430 -11.28348 -11.20526  -1.20976  -0.98770
 Alpha  occ. eigenvalues --   -0.79303  -0.70650  -0.63963  -0.56613  -0.51596
 Alpha  occ. eigenvalues --   -0.49237  -0.30305
 Alpha virt. eigenvalues --    0.03325   0.04668   0.05116   0.07025   0.07335
 Alpha virt. eigenvalues --    0.12087   0.12478   0.13354   0.14677   0.15290
 Alpha virt. eigenvalues --    0.17642   0.18363   0.18364   0.20045   0.22052

 Mulliken charges:
               1
     1  C    0.548510
     2  C    0.722048
     3  H   -0.345518
     4  H   -0.295736
     5  N   -0.142345
     6  H   -0.363453
     7  H   -0.093165
     8  H   -0.030341
 Sum of Mulliken charges =  -0.00000

 Dipole moment (field-independent basis, Debye):
    X=             -1.6599    Y=              0.2615    Z=              0.0000  Tot=              1.6804
 Quadrupole moment (field-independent basis, Debye-Ang):
   XX=            -17.4004   YY=            -16.7837   ZZ=            -23.9504
   XY=              0.0074   XZ=              0.0000   YZ=             -0.0000

  Exact polarizability:      53.290      -0.128      34.284      -0.000      -0.000      31.023
 Approx polarizability:      40.278       1.842      29.609       0.000       0.000      27.343

 ******    1 imaginary frequencies (negative Signs) ******

                      1                      2                      3
                     A"                     A"                     A'
 Frequencies --   -448.8421               385.4473               445.9853
 Red. masses --      1.2567                 1.0538                 1.8935
 Frc consts  --      0.1492                 0.0922                 0.2219
 IR Inten    --    194.5842                 5.1150                 1.8651

                      4                      5                      6
                     A"                     A"                     A'
 Frequencies --    691.1086               783.2611               944.5068
 Red. masses --      1.4660                 1.3944                 1.2270
 Frc consts  --      0.4126                 0.5040                 0.6449
 IR Inten    --     26.1474                55.9764                 3.2379

                      7                      8                      9
                     A"                     A'                     A'
 Frequencies --    982.1751              1053.4765              1272.7163
 Red. masses --      1.1099                 1.8931                 2.4114
 Frc consts  --      0.6309                 1.2379                 2.3014
 IR Inten    --     29.7700                26.2731                58.8851

                     10                     11                     12
                     A'                     A'                     A'
 Frequencies --   1326.4854              1446.0555              1640.8501
 Red. masses --      1.1876                 1.1860                 1.2226
 Frc consts  --      1.2312                 1.4611                 1.9395
 IR Inten    --     22.5338                 3.9581                12.0349

                     13                     14                     15
                     A'                     A'                     A'
 Frequencies --   1707.7694              3192.0835              3217.6403
 Red. masses --      3.7255                 1.0599                 1.0930
 Frc consts  --      6.4016                 6.3630                 6.6674
 IR Inten    --    242.2721                 5.8379                 6.2315

                     16                     17                     18
                     A'                     A'                     A'
 Frequencies --   3307.8652              3647.7259              3795.0066
 Red. masses --      1.1157                 1.0470                 1.1040
 Frc consts  --      7.1926                 8.2081                 9.3675
 IR Inten    --      8.3584                49.2225                47.5435

 - Thermochemistry -
 -------------------
 Temperature   298.150 Kelvin.  Pressure   1.00000 Atm.
 Atom     1 has atomic number  6 and mass  12.00000

 Molecular mass:    43.04220 amu.
 Principal axes and moments of inertia in atomic units:
                           1         2         3
     Eigenvalues --    31.62636 182.60939 214.23575
           X            0.98848   0.15134  -0.00000
           Y           -0.15134   0.98848   0.00000
           Z            0.00000  -0.00000   1.00000
 This molecule is an asymmetric top.
 Rotational symmetry number  1.
 Rotational temperatures (Kelvin)      2.73866     0.47431     0.40429
 Rotational constants (GHZ):          57.06447     9.88307     8.42409
    1 imaginary frequencies ignored.
 Zero-point vibrational energy     178483.8 (Joules/Mol)
                                   42.65865 (Kcal/Mol)
 Warning -- explicit consideration of   2 degrees of freedom as
           vibrations may cause significant error
 Vibrational temperatures:    554.57   641.67   994.35  1126.94  1358.93
          (Kelvin)           1413.13  1515.72  1831.15  1908.52  2080.55
                             2360.82  2457.10  4592.70  4629.47  4759.28
                             5248.26  5460.17

 Zero-point correction=                           0.067981 (Hartree/Particle)
 Thermal correction to Energy=                    0.071753
 Thermal correction to Enthalpy=                  0.072697
 Thermal correction to Gibbs Free Energy=         0.043388
 Sum of electronic and zero-point Energies=           -133.482991
 Sum of electronic and thermal Energies=              -133.479219
 Sum of electronic and thermal Enthalpies=            -133.478275
 Sum of electronic and thermal Free Energies=         -133.507583

                     E (Thermal)             CV                S
                      KCal/Mol        Cal/Mol-Kelvin    Cal/Mol-Kelvin
 Total                   45.025             11.988             61.685
 Electronic               0.000              0.000              0.000
 Translational            0.889              2.981             37.205
 Rotational               0.889              2.981             21.742
 Vibrational             43.248              6.027              2.738
 Vibration     1          0.754              1.501              1.018
 Vibration     2          0.805              1.370              0.808

 Optimization completed.
    -- Stationary point found.
 Normal termination of Gaussian 16 at Fri Apr  4 13:22:44 2025.
