 Gaussian 16, Revision C.01,
 Gaussian 16:  EM64L-G16RevC.01  3-Jul-2019

 ----------------------------------------------
 # MP2/aug-cc-pVTZ opt freq=(vibrot,anharmonic)
 ----------------------------------------------

 ----
 blah
 ----
 Symbolic Z-matrix:
 Charge =  0 Multiplicity = 1

 SCF Done:  E(RHF) =  -133.119501233     A.U. after   12 cycles
 E2 =    -0.5547457255D+00 EUMP2 =    -0.13367424695809D+03
 SCF Done:  E(RHF) =  -133.120563737     A.U. after   10 cycles
 E2 =    -0.5545603740D+00 EUMP2 =    -0.13367512411147D+03
 SCF Done:  E(RHF) =  -133.120589411     A.U. after    8 cycles
 E2 =    -0.5545522861D+00 EUMP2 =    -0.13367514169728D+03
 Optimization completed.
    -- Stationary point found.
 Normal termination of Gaussian 16 at Fri Apr  4 04:51:34 2025.

 ----------------------------------------------------------------------
 #N Geom=AllCheck Guess=TCheck SCRF=Check GenChk RMP2(FC)/Aug-CC-pVTZ F
 req
 ----------------------------------------------------------------------

 Structure from the checkpoint file:  "/scr/Gau-45621.chk"
 ----
 blah
 ----
 Charge =  0 Multiplicity = 1

                         Standard orientation:
 ---------------------------------------------------------------------
 Center     Atomic      Atomic             Coordinates (Angstroms)
 Number     Number       Type             X           Y           Z
 ---------------------------------------------------------------------
      1          6           0        1.269837    0.000482   -0.000000
      2          6           0       -0.000000   -0.432520   -0.000000
      3          1           0        1.513637    1.054219   -0.000000
      4          1           0        2.077069   -0.712528   -0.000000
      5          7           0       -1.128700    0.350615    0.000000
      6          1           0       -0.206390   -1.495421   -0.000000
      7          1           0       -1.062347    1.350422    0.000000
      8          1           0       -2.040095   -0.058775    0.000000
 ---------------------------------------------------------------------

 SCF Done:  E(RHF) =  -133.120589411     A.U. after    1 cycles
 E2 =    -0.5545522960D+00 EUMP2 =    -0.13367514170721D+03
 E2 =    -0.5545522960D+00 EUMP2 =    -0.13367514170721D+03
 ******    1 imaginary frequencies (negative Signs) ******
    1 imaginary frequencies ignored.
 SCF Done:  E(RHF) =  -133.120589708     A.U. after    8 cycles
 E2 =    -0.5545534259D+00 EUMP2 =    -0.13367514313352D+03
 E2 =    -0.5545534259D+00 EUMP2 =    -0.13367514313352D+03
 SCF Done:  E(RHF) =  -133.120589708     A.U. after    8 cycles
 E2 =    -0.5545534259D+00 EUMP2 =    -0.13367514313352D+03
 E2 =    -0.5545534259D+00 EUMP2 =    -0.13367514313352D+03
 SCF Done:  E(RHF) =  -133.120587225     A.U. after    8 cycles
 E2 =    -0.5545534220D+00 EUMP2 =    -0.13367514064668D+03
 E2 =    -0.5545534220D+00 EUMP2 =    -0.13367514064668D+03
 SCF Done:  E(RHF) =  -133.120587225     A.U. after    8 cycles
 E2 =    -0.5545534220D+00 EUMP2 =    -0.13367514064668D+03
 E2 =    -0.5545534220D+00 EUMP2 =    -0.13367514064668D+03
 SCF Done:  E(RHF) =  -133.120585307     A.U. after    7 cycles
 E2 =    -0.5545548276D+00 EUMP2 =    -0.13367514013506D+03
 E2 =    -0.5545548276D+00 EUMP2 =    -0.13367514013506D+03
 SCF Done:  E(RHF) =  -133.120589678     A.U. after    7 cycles
 E2 =    -0.5545508723D+00 EUMP2 =    -0.13367514054997D+03
 E2 =    -0.5545508723D+00 EUMP2 =    -0.13367514054997D+03
 E2 =    -0.5545532172D+00 EUMP2 =    -0.13367513845009D+03
 E2 =    -0.5545532172D+00 EUMP2 =    -0.13367513845009D+03
 E2 =    -0.5545532172D+00 EUMP2 =    -0.13367513845009D+03
 SCF Done:  E(RHF) =  -133.120432250     A.U. after    9 cycles
 E2 =    -0.5546405766D+00 EUMP2 =    -0.13367507282683D+03
 E2 =    -0.5546405766D+00 EUMP2 =    -0.13367507282683D+03
 SCF Done:  E(RHF) =  -133.120606250     A.U. after    9 cycles
 E2 =    -0.5544667759D+00 EUMP2 =    -0.13367507302544D+03
 E2 =    -0.5544667759D+00 EUMP2 =    -0.13367507302544D+03
 SCF Done:  E(RHF) =  -133.120629007     A.U. after    9 cycles
 E2 =    -0.5544434936D+00 EUMP2 =    -0.13367507250066D+03
 E2 =    -0.5544434936D+00 EUMP2 =    -0.13367507250066D+03
 SCF Done:  E(RHF) =  -133.120407516     A.U. after    9 cycles
 E2 =    -0.5546641145D+00 EUMP2 =    -0.13367507163052D+03
 E2 =    -0.5546641145D+00 EUMP2 =    -0.13367507163052D+03
 SCF Done:  E(RHF) =  -133.120548251     A.U. after    8 cycles
 E2 =    -0.5545148489D+00 EUMP2 =    -0.13367506309997D+03
 E2 =    -0.5545148489D+00 EUMP2 =    -0.13367506309997D+03
 SCF Done:  E(RHF) =  -133.120481502     A.U. after    8 cycles
 E2 =    -0.5545915331D+00 EUMP2 =    -0.13367507303499D+03
 E2 =    -0.5545915331D+00 EUMP2 =    -0.13367507303499D+03
 SCF Done:  E(RHF) =  -133.120151761     A.U. after    8 cycles
 E2 =    -0.5549042636D+00 EUMP2 =    -0.13367505602461D+03
 E2 =    -0.5549042636D+00 EUMP2 =    -0.13367505602461D+03
 SCF Done:  E(RHF) =  -133.120842612     A.U. after    8 cycles
 E2 =    -0.5542035570D+00 EUMP2 =    -0.13367504616877D+03
 E2 =    -0.5542035570D+00 EUMP2 =    -0.13367504616877D+03
 SCF Done:  E(RHF) =  -133.120536782     A.U. after    7 cycles
 E2 =    -0.5545044378D+00 EUMP2 =    -0.13367504121938D+03
 E2 =    -0.5545044378D+00 EUMP2 =    -0.13367504121938D+03
 SCF Done:  E(RHF) =  -133.120444549     A.U. after    7 cycles
 E2 =    -0.5546022393D+00 EUMP2 =    -0.13367504678823D+03
 E2 =    -0.5546022393D+00 EUMP2 =    -0.13367504678823D+03

 Alpha  occ. eigenvalues --  -15.56411 -11.27067 -11.19184  -1.21256  -0.99073
 Alpha  occ. eigenvalues --   -0.79514  -0.71036  -0.64328  -0.56948  -0.51754
 Alpha  occ. eigenvalues --   -0.49645  -0.30489
 Alpha virt. eigenvalues --    0.02681   0.03889   0.04178   0.05979   0.06199
 Alpha virt. eigenvalues --    0.09870   0.10499   0.11174   0.12280   0.12466
 Alpha virt. eigenvalues --    0.14118   0.14178   0.15046   0.16399   0.18260

 Mulliken charges:
               1
     1  C   -1.002387
     2  C   -0.216116
     3  H    0.422026
     4  H    0.346975
     5  N   -0.425308
     6  H    0.611793
     7  H    0.125316
     8  H    0.137702
 Sum of Mulliken charges =  -0.00000

 Dipole moment (field-independent basis, Debye):
    X=             -1.6321    Y=              0.2688    Z=             -0.0000  Tot=              1.6541
 Quadrupole moment (field-independent basis, Debye-Ang):
   XX=            -17.1306   YY=            -16.5613   ZZ=            -23.5075
   XY=              0.0206   XZ=              0.0000   YZ=              0.0000

  Exact polarizability:      52.487      -0.480      34.154      -0.000      -0.000      30.584
 Approx polarizability:      39.549       1.523      29.341      -0.000      -0.000      27.045

 ******    1 imaginary frequencies (negative Signs) ******

                      1                      2                      3
                     A"                     A"                     A'
 Frequencies --   -459.5399               396.1983               449.6324
 Red. masses --      1.2508                 1.0502                 1.8749
 Frc consts  --      0.1556                 0.0971                 0.2233
 IR Inten    --    195.0613                 4.9312                 1.9437

                      4                      5                      6
                     A"                     A"                     A'
 Frequencies --    694.4872               789.5240               948.6532
 Red. masses --      1.4473                 1.4156                 1.2199
 Frc consts  --      0.4113                 0.5199                 0.6469
 IR Inten    --     24.9223                55.0283                 2.8993

                      7                      8                      9
                     A"                     A'                     A'
 Frequencies --    995.1512              1057.0385              1281.2518
 Red. masses --      1.1170                 1.9226                 2.4047
 Frc consts  --      0.6517                 1.2657                 2.3258
 IR Inten    --     25.4816                26.5935                62.5765

                     10                     11                     12
                     A'                     A'                     A'
 Frequencies --   1334.3680              1456.2452              1642.9396
 Red. masses --      1.1987                 1.1873                 1.2013
 Frc consts  --      1.2575                 1.4834                 1.9104
 IR Inten    --     20.7562                 3.6173                16.1806

                     13                     14                     15
                     A'                     A'                     A'
 Frequencies --   1710.9507              3190.2845              3210.0122
 Red. masses --      3.8627                 1.0600                 1.0933
 Frc consts  --      6.6621                 6.3563                 6.6375
 IR Inten    --    237.0120                 6.1599                 4.5958

                     16                     17                     18
                     A'                     A'                     A'
 Frequencies --   3300.9963              3661.6406              3802.2479
 Red. masses --      1.1150                 1.0465                 1.1039
 Frc consts  --      7.1581                 8.2670                 9.4028
 IR Inten    --      6.0533                50.2636                51.9420

 - Thermochemistry -
 -------------------
 Temperature   298.150 Kelvin.  Pressure   1.00000 Atm.
 Atom     1 has atomic number  6 and mass  12.00000

 Molecular mass:    43.04220 amu.
 Principal axes and moments of inertia in atomic units:
                           1         2         3
     Eigenvalues --    30.96948 179.40930 210.37878
           X            0.98765   0.15668   0.00000
           Y           -0.15668   0.98765  -0.00000
           Z           -0.00000   0.00000   1.00000
 This molecule is an asymmetric top.
 Rotational symmetry number  1.
 Rotational temperatures (Kelvin)      2.79675     0.48277     0.41170
 Rotational constants (GHZ):          58.27482    10.05935     8.57853
    1 imaginary frequencies ignored.
 Zero-point vibrational energy     178971.0 (Joules/Mol)
                                   42.77511 (Kcal/Mol)
 Warning -- explicit consideration of   2 degrees of freedom as
           vibrations may cause significant error
 Vibrational temperatures:    570.04   646.92   999.21  1135.95  1364.90
          (Kelvin)           1431.80  1520.84  1843.44  1919.86  2095.21
                             2363.82  2461.68  4590.11  4618.49  4749.40
                             5268.28  5470.59

 Zero-point correction=                           0.068166 (Hartree/Particle)
 Thermal correction to Energy=                    0.071917
 Thermal correction to Enthalpy=                  0.072861
 Thermal correction to Gibbs Free Energy=         0.043614
 Sum of electronic and zero-point Energies=           -133.606975
 Sum of electronic and thermal Energies=              -133.603225
 Sum of electronic and thermal Enthalpies=            -133.602281
 Sum of electronic and thermal Free Energies=         -133.631528

                     E (Thermal)             CV                S
                      KCal/Mol        Cal/Mol-Kelvin    Cal/Mol-Kelvin
 Total                   45.129             11.905             61.556
 Electronic               0.000              0.000              0.000
 Translational            0.889              2.981             37.205
 Rotational               0.889              2.981             21.685
 Vibrational             43.351              5.944              2.665
 Vibration     1          0.763              1.478              0.977
 Vibration     2          0.809              1.362              0.797

                           ! Non-Optimized Parameters !
 Normal termination of Gaussian 16 at Fri Apr  4 10:38:43 2025.
