 Gaussian 16, Revision C.01,
 Gaussian 16:  EM64L-G16RevC.01  3-Jul-2019

 ----------------------------------------------
 # MP2/aug-cc-pVTZ opt freq=(vibrot,anharmonic)
 ----------------------------------------------

 ----
 blah
 ----
 Symbolic Z-matrix:
 Charge =  0 Multiplicity = 1

 SCF Done:  E(RHF) =  -133.117109675     A.U. after   12 cycles
 E2 =    -0.5561108844D+00 EUMP2 =    -0.13367322055973D+03
 SCF Done:  E(RHF) =  -133.121615528     A.U. after   11 cycles
 E2 =    -0.5544415194D+00 EUMP2 =    -0.13367605704768D+03
 SCF Done:  E(RHF) =  -133.122076453     A.U. after   11 cycles
 E2 =    -0.5543552976D+00 EUMP2 =    -0.13367643175094D+03
 SCF Done:  E(RHF) =  -133.122246035     A.U. after   11 cycles
 E2 =    -0.5544720821D+00 EUMP2 =    -0.13367671811693D+03
 SCF Done:  E(RHF) =  -133.122217704     A.U. after   10 cycles
 E2 =    -0.5545816018D+00 EUMP2 =    -0.13367679930577D+03
 SCF Done:  E(RHF) =  -133.122193719     A.U. after    9 cycles
 E2 =    -0.5546265581D+00 EUMP2 =    -0.13367682027670D+03
 SCF Done:  E(RHF) =  -133.122214987     A.U. after    8 cycles
 E2 =    -0.5546062095D+00 EUMP2 =    -0.13367682119606D+03
 Optimization completed.
    -- Stationary point found.
 Normal termination of Gaussian 16 at Tue Apr  8 17:36:24 2025.

 ----------------------------------------------------------------------
 #N Geom=AllCheck Guess=TCheck SCRF=Check GenChk RMP2(FC)/Aug-CC-pVTZ F
 req
 ----------------------------------------------------------------------

 Structure from the checkpoint file:  "/scr/Gau-34770.chk"
 ----
 blah
 ----
 Charge =  0 Multiplicity = 1

                         Standard orientation:
 ---------------------------------------------------------------------
 Center     Atomic      Atomic             Coordinates (Angstroms)
 Number     Number       Type             X           Y           Z
 ---------------------------------------------------------------------
      1          6           0       -1.248240   -0.199630    0.015238
      2          6           0       -0.068384    0.433453   -0.000653
      3          1           0       -1.313175   -1.279367    0.019061
      4          1           0       -2.163230    0.369914    0.007240
      5          7           0        1.183545   -0.169987   -0.088146
      6          1           0       -0.033559    1.515785   -0.011030
      7          1           0        1.196726   -1.151084    0.146409
      8          1           0        1.928164    0.331723    0.367834
 ---------------------------------------------------------------------

 SCF Done:  E(RHF) =  -133.122214987     A.U. after    1 cycles
 E2 =    -0.5546062098D+00 EUMP2 =    -0.13367682119637D+03
 E2 =    -0.5546062098D+00 EUMP2 =    -0.13367682119637D+03
 SCF Done:  E(RHF) =  -133.122211836     A.U. after    8 cycles
 E2 =    -0.5546084463D+00 EUMP2 =    -0.13367682028238D+03
 E2 =    -0.5546084463D+00 EUMP2 =    -0.13367682028238D+03
 SCF Done:  E(RHF) =  -133.122214397     A.U. after    8 cycles
 E2 =    -0.5546060810D+00 EUMP2 =    -0.13367682047841D+03
 E2 =    -0.5546060810D+00 EUMP2 =    -0.13367682047841D+03
 E2 =    -0.5546036576D+00 EUMP2 =    -0.13367681974337D+03
 E2 =    -0.5546036576D+00 EUMP2 =    -0.13367681974337D+03
 E2 =    -0.5546098617D+00 EUMP2 =    -0.13367681978118D+03
 E2 =    -0.5546098617D+00 EUMP2 =    -0.13367681978118D+03
 E2 =    -0.5546136422D+00 EUMP2 =    -0.13367681865425D+03
 E2 =    -0.5546136422D+00 EUMP2 =    -0.13367681865425D+03
 E2 =    -0.5546018813D+00 EUMP2 =    -0.13367681887763D+03
 SCF Done:  E(RHF) =  -133.122059881     A.U. after    9 cycles
 E2 =    -0.5546930416D+00 EUMP2 =    -0.13367675292211D+03
 E2 =    -0.5546930416D+00 EUMP2 =    -0.13367675292211D+03
 SCF Done:  E(RHF) =  -133.122229943     A.U. after    9 cycles
 E2 =    -0.5545222233D+00 EUMP2 =    -0.13367675216609D+03
 E2 =    -0.5545222233D+00 EUMP2 =    -0.13367675216609D+03
 SCF Done:  E(RHF) =  -133.122256846     A.U. after    9 cycles
 E2 =    -0.5544937105D+00 EUMP2 =    -0.13367675055646D+03
 E2 =    -0.5544937105D+00 EUMP2 =    -0.13367675055646D+03
 SCF Done:  E(RHF) =  -133.122031069     A.U. after    9 cycles
 E2 =    -0.5547216799D+00 EUMP2 =    -0.13367675274868D+03
 E2 =    -0.5547216799D+00 EUMP2 =    -0.13367675274868D+03
 SCF Done:  E(RHF) =  -133.122105424     A.U. after    8 cycles
 E2 =    -0.5546427744D+00 EUMP2 =    -0.13367674819837D+03
 E2 =    -0.5546427744D+00 EUMP2 =    -0.13367674819837D+03
 SCF Done:  E(RHF) =  -133.122175862     A.U. after    8 cycles
 E2 =    -0.5545715032D+00 EUMP2 =    -0.13367674736470D+03
 E2 =    -0.5545715032D+00 EUMP2 =    -0.13367674736470D+03
 SCF Done:  E(RHF) =  -133.121778254     A.U. after    9 cycles
 E2 =    -0.5549566851D+00 EUMP2 =    -0.13367673493886D+03
 E2 =    -0.5549566851D+00 EUMP2 =    -0.13367673493886D+03
 SCF Done:  E(RHF) =  -133.122475535     A.U. after    8 cycles
 E2 =    -0.5542588463D+00 EUMP2 =    -0.13367673438109D+03
 E2 =    -0.5542588463D+00 EUMP2 =    -0.13367673438109D+03
 SCF Done:  E(RHF) =  -133.122149527     A.U. after    8 cycles
 E2 =    -0.5545793863D+00 EUMP2 =    -0.13367672891339D+03
 E2 =    -0.5545793863D+00 EUMP2 =    -0.13367672891339D+03
 SCF Done:  E(RHF) =  -133.122094686     A.U. after    8 cycles
 E2 =    -0.5546343360D+00 EUMP2 =    -0.13367672902223D+03
 E2 =    -0.5546343360D+00 EUMP2 =    -0.13367672902223D+03

 Alpha  occ. eigenvalues --  -15.56495 -11.26907 -11.20055  -1.21149  -0.99411
 Alpha  occ. eigenvalues --   -0.79097  -0.69838  -0.63722  -0.57261  -0.52158
 Alpha  occ. eigenvalues --   -0.49414  -0.31846
 Alpha virt. eigenvalues --    0.02785   0.03910   0.04101   0.05923   0.06294
 Alpha virt. eigenvalues --    0.09261   0.10280   0.11375   0.12413   0.12511
 Alpha virt. eigenvalues --    0.13793   0.14582   0.15094   0.16618   0.18296

 Mulliken charges:
               1
     1  C   -0.950277
     2  C   -0.238396
     3  H    0.426205
     4  H    0.377435
     5  N   -0.433659
     6  H    0.549587
     7  H    0.119244
     8  H    0.149861
 Sum of Mulliken charges =  -0.00000

 Dipole moment (field-independent basis, Debye):
    X=              1.0667    Y=             -0.0400    Z=              0.9618  Tot=              1.4368
 Quadrupole moment (field-independent basis, Debye-Ang):
   XX=            -18.0244   YY=            -16.7680   ZZ=            -23.0574
   XY=             -0.0333   XZ=              2.0973   YZ=             -0.1354

  Exact polarizability:      50.664       2.396      34.434      -0.428      -0.067      30.049
 Approx polarizability:      38.166       3.208      30.161      -0.101      -0.008      26.910

                      1                      2                      3
                      A                      A                      A
 Frequencies --    347.2180               460.5959               599.5629
 Red. masses --      1.0825                 1.9472                 1.1589
 Frc consts  --      0.0769                 0.2434                 0.2454
 IR Inten    --     44.7842                 3.5101               241.7527

                      4                      5                      6
                      A                      A                      A
 Frequencies --    716.3114               821.1527               959.4813
 Red. masses --      1.6891                 1.3998                 1.3319
 Frc consts  --      0.5106                 0.5561                 0.7224
 IR Inten    --     20.6368                59.8653                 3.6240

                      7                      8                      9
                      A                      A                      A
 Frequencies --   1000.5166              1077.4567              1292.6296
 Red. masses --      1.1370                 1.7119                 2.0588
 Frc consts  --      0.6706                 1.1709                 2.0268
 IR Inten    --     28.0154                16.1509                41.3851

                     10                     11                     12
                      A                      A                      A
 Frequencies --   1335.2019              1455.9941              1651.0347
 Red. masses --      1.1994                 1.1786                 1.1874
 Frc consts  --      1.2599                 1.4720                 1.9071
 IR Inten    --      9.1787                 2.5960                19.8055

                     13                     14                     15
                      A                      A                      A
 Frequencies --   1710.3376              3187.2655              3207.7213
 Red. masses --      3.5316                 1.0593                 1.0936
 Frc consts  --      6.0868                 6.3402                 6.6301
 IR Inten    --    147.4592                 5.3994                 4.8897

                     16                     17                     18
                      A                      A                      A
 Frequencies --   3295.9208              3578.3023              3694.1582
 Red. masses --      1.1156                 1.0481                 1.0976
 Frc consts  --      7.1405                 7.9070                 8.8253
 IR Inten    --      6.2079                15.7681                24.2198

 - Thermochemistry -
 -------------------
 Temperature   298.150 Kelvin.  Pressure   1.00000 Atm.
 Atom     1 has atomic number  6 and mass  12.00000

 Molecular mass:    43.04220 amu.
 Principal axes and moments of inertia in atomic units:
                           1         2         3
     Eigenvalues --    31.90836 179.53042 209.66134
           X            0.99986   0.00245   0.01672
           Y           -0.00228   0.99995  -0.01011
           Z           -0.01674   0.01007   0.99981
 This molecule is an asymmetric top.
 Rotational symmetry number  1.
 Rotational temperatures (Kelvin)      2.71446     0.48245     0.41311
 Rotational constants (GHZ):          56.56015    10.05256     8.60789
 Zero-point vibrational energy     181777.7 (Joules/Mol)
                                   43.44592 (Kcal/Mol)
 Warning -- explicit consideration of   3 degrees of freedom as
           vibrations may cause significant error
 Vibrational temperatures:    499.57   662.69   862.64  1030.61  1181.46
          (Kelvin)           1380.48  1439.52  1550.22  1859.81  1921.06
                             2094.85  2375.47  2460.79  4585.76  4615.20
                             4742.09  5148.38  5315.07

 Zero-point correction=                           0.069235 (Hartree/Particle)
 Thermal correction to Energy=                    0.073165
 Thermal correction to Enthalpy=                  0.074109
 Thermal correction to Gibbs Free Energy=         0.044586
 Sum of electronic and zero-point Energies=           -133.607586
 Sum of electronic and thermal Energies=              -133.603656
 Sum of electronic and thermal Enthalpies=            -133.602712
 Sum of electronic and thermal Free Energies=         -133.632235

                     E (Thermal)             CV                S
                      KCal/Mol        Cal/Mol-Kelvin    Cal/Mol-Kelvin
 Total                   45.912             12.878             62.138
 Electronic               0.000              0.000              0.000
 Translational            0.889              2.981             37.205
 Rotational               0.889              2.981             21.712
 Vibrational             44.134              6.916              3.220
 Vibration     1          0.725              1.581              1.179
 Vibration     2          0.818              1.337              0.764
 Vibration     3          0.958              1.033              0.450

 ## DEPERTURBED TRANSITIONS MOMENTS ##

 Electric dipole : Fundamental Bands
 ------------------------------------------------------------------------

 ## AFTER VARIATIONAL CORRECTION

 Electric dipole : Fundamental Bands
 ------------------------------------------------------------------------

 Optimization completed.
    -- Stationary point found.
 Normal termination of Gaussian 16 at Tue Apr  8 23:27:12 2025.
