 Gaussian 16, Revision C.01,
 Gaussian 16:  EM64L-G16RevC.01  3-Jul-2019

 ----------------------------------------------
 # MP2/aug-cc-pVDZ opt freq=(vibrot,anharmonic)
 ----------------------------------------------

 ----
 blah
 ----
 Symbolic Z-matrix:
 Charge =  0 Multiplicity = 1

 SCF Done:  E(RHF) =  -133.084474806     A.U. after   13 cycles
 E2 =    -0.4650519213D+00 EUMP2 =    -0.13354952672695D+03
 SCF Done:  E(RHF) =  -133.086710474     A.U. after   11 cycles
 E2 =    -0.4651712630D+00 EUMP2 =    -0.13355188173693D+03
 SCF Done:  E(RHF) =  -133.087312857     A.U. after   11 cycles
 E2 =    -0.4650063482D+00 EUMP2 =    -0.13355231920530D+03
 SCF Done:  E(RHF) =  -133.087640063     A.U. after   12 cycles
 E2 =    -0.4650294696D+00 EUMP2 =    -0.13355266953287D+03
 SCF Done:  E(RHF) =  -133.087674179     A.U. after   10 cycles
 E2 =    -0.4651039437D+00 EUMP2 =    -0.13355277812233D+03
 SCF Done:  E(RHF) =  -133.087660032     A.U. after   10 cycles
 E2 =    -0.4651568646D+00 EUMP2 =    -0.13355281689650D+03
 SCF Done:  E(RHF) =  -133.087660292     A.U. after    8 cycles
 E2 =    -0.4651579528D+00 EUMP2 =    -0.13355281824433D+03
 Optimization completed.
    -- Stationary point found.
 Normal termination of Gaussian 16 at Tue Apr  8 15:03:23 2025.

 ----------------------------------------------------------------------
 #N Geom=AllCheck Guess=TCheck SCRF=Check GenChk RMP2(FC)/Aug-CC-pVDZ F
 req
 ----------------------------------------------------------------------

 Structure from the checkpoint file:  "/scr/Gau-51020.chk"
 ----
 blah
 ----
 Charge =  0 Multiplicity = 1

                         Standard orientation:
 ---------------------------------------------------------------------
 Center     Atomic      Atomic             Coordinates (Angstroms)
 Number     Number       Type             X           Y           Z
 ---------------------------------------------------------------------
      1          6           0       -1.259847   -0.201500    0.015891
      2          6           0       -0.066340    0.438512    0.000188
      3          1           0       -1.327248   -1.293070    0.023356
      4          1           0       -2.184550    0.375121    0.004023
      5          7           0        1.194645   -0.171625   -0.092335
      6          1           0       -0.030427    1.532618   -0.013991
      7          1           0        1.200193   -1.160016    0.145653
      8          1           0        1.936640    0.324646    0.390834
 ---------------------------------------------------------------------

 SCF Done:  E(RHF) =  -133.087660292     A.U. after    1 cycles
 E2 =    -0.4651579532D+00 EUMP2 =    -0.13355281824466D+03
 E2 =    -0.4651579532D+00 EUMP2 =    -0.13355281824466D+03
 SCF Done:  E(RHF) =  -133.087657628     A.U. after    9 cycles
 E2 =    -0.4651601087D+00 EUMP2 =    -0.13355281773652D+03
 E2 =    -0.4651601087D+00 EUMP2 =    -0.13355281773652D+03
 SCF Done:  E(RHF) =  -133.087658912     A.U. after    9 cycles
 E2 =    -0.4651583382D+00 EUMP2 =    -0.13355281725009D+03
 E2 =    -0.4651583382D+00 EUMP2 =    -0.13355281725009D+03
 E2 =    -0.4651594638D+00 EUMP2 =    -0.13355281688034D+03
 E2 =    -0.4651594638D+00 EUMP2 =    -0.13355281688034D+03
 E2 =    -0.4651576765D+00 EUMP2 =    -0.13355281677512D+03
 E2 =    -0.4651576765D+00 EUMP2 =    -0.13355281677512D+03
 E2 =    -0.4651615814D+00 EUMP2 =    -0.13355281517923D+03
 E2 =    -0.4651615814D+00 EUMP2 =    -0.13355281517923D+03
 E2 =    -0.4651577379D+00 EUMP2 =    -0.13355281635796D+03
 SCF Done:  E(RHF) =  -133.087431010     A.U. after    9 cycles
 E2 =    -0.4653194644D+00 EUMP2 =    -0.13355275047494D+03
 E2 =    -0.4653194644D+00 EUMP2 =    -0.13355275047494D+03
 SCF Done:  E(RHF) =  -133.087751859     A.U. after    9 cycles
 E2 =    -0.4649967762D+00 EUMP2 =    -0.13355274863545D+03
 E2 =    -0.4649967762D+00 EUMP2 =    -0.13355274863545D+03
 SCF Done:  E(RHF) =  -133.087759144     A.U. after    9 cycles
 E2 =    -0.4649873888D+00 EUMP2 =    -0.13355274653249D+03
 E2 =    -0.4649873888D+00 EUMP2 =    -0.13355274653249D+03
 SCF Done:  E(RHF) =  -133.087421271     A.U. after    9 cycles
 E2 =    -0.4653290143D+00 EUMP2 =    -0.13355275028531D+03
 E2 =    -0.4653290143D+00 EUMP2 =    -0.13355275028531D+03
 SCF Done:  E(RHF) =  -133.087532133     A.U. after    9 cycles
 E2 =    -0.4652128553D+00 EUMP2 =    -0.13355274498800D+03
 E2 =    -0.4652128553D+00 EUMP2 =    -0.13355274498800D+03
 SCF Done:  E(RHF) =  -133.087641749     A.U. after    8 cycles
 E2 =    -0.4651022769D+00 EUMP2 =    -0.13355274402624D+03
 E2 =    -0.4651022769D+00 EUMP2 =    -0.13355274402624D+03
 SCF Done:  E(RHF) =  -133.087163657     A.U. after   10 cycles
 E2 =    -0.4655695625D+00 EUMP2 =    -0.13355273321926D+03
 E2 =    -0.4655695625D+00 EUMP2 =    -0.13355273321926D+03
 SCF Done:  E(RHF) =  -133.087984471     A.U. after   10 cycles
 E2 =    -0.4647480019D+00 EUMP2 =    -0.13355273247270D+03
 E2 =    -0.4647480019D+00 EUMP2 =    -0.13355273247270D+03
 SCF Done:  E(RHF) =  -133.087596859     A.U. after    9 cycles
 E2 =    -0.4651303808D+00 EUMP2 =    -0.13355272723933D+03
 E2 =    -0.4651303808D+00 EUMP2 =    -0.13355272723933D+03
 SCF Done:  E(RHF) =  -133.087541381     A.U. after    9 cycles
 E2 =    -0.4651852604D+00 EUMP2 =    -0.13355272664175D+03
 E2 =    -0.4651852604D+00 EUMP2 =    -0.13355272664175D+03

 Alpha  occ. eigenvalues --  -15.57600 -11.28157 -11.21468  -1.20858  -0.99118
 Alpha  occ. eigenvalues --   -0.78858  -0.69338  -0.63300  -0.56981  -0.51979
 Alpha  occ. eigenvalues --   -0.49057  -0.31765
 Alpha virt. eigenvalues --    0.03447   0.04697   0.05012   0.06949   0.07515
 Alpha virt. eigenvalues --    0.11552   0.11955   0.13604   0.14828   0.15234
 Alpha virt. eigenvalues --    0.17453   0.17982   0.18769   0.20129   0.21956

 Mulliken charges:
               1
     1  C    0.564005
     2  C    0.691037
     3  H   -0.334814
     4  H   -0.289798
     5  N   -0.249845
     6  H   -0.341392
     7  H   -0.043331
     8  H    0.004138
 Sum of Mulliken charges =  -0.00000

 Dipole moment (field-independent basis, Debye):
    X=              1.0329    Y=             -0.0498    Z=              0.9994  Tot=              1.4381
 Quadrupole moment (field-independent basis, Debye-Ang):
   XX=            -18.3829   YY=            -17.0191   ZZ=            -23.4366
   XY=             -0.0607   XZ=              2.2068   YZ=             -0.1391

  Exact polarizability:      51.398       2.713      34.765      -0.355      -0.060      30.442
 Approx polarizability:      38.891       3.529      30.578      -0.038       0.006      27.232

                      1                      2                      3
                      A                      A                      A
 Frequencies --    333.3234               457.9488               605.1172
 Red. masses --      1.0828                 1.9847                 1.1501
 Frc consts  --      0.0709                 0.2452                 0.2481
 IR Inten    --     46.2721                 3.3583               234.7171

                      4                      5                      6
                      A                      A                      A
 Frequencies --    714.3444               817.4587               952.3627
 Red. masses --      1.7325                 1.3848                 1.3311
 Frc consts  --      0.5209                 0.5452                 0.7113
 IR Inten    --     31.5811                58.1849                 3.9806

                      7                      8                      9
                      A                      A                      A
 Frequencies --    988.6020              1073.0358              1283.0282
 Red. masses --      1.1390                 1.6954                 2.0452
 Frc consts  --      0.6559                 1.1502                 1.9836
 IR Inten    --     31.2337                15.0027                37.1641

                     10                     11                     12
                      A                      A                      A
 Frequencies --   1327.9801              1445.1322              1634.7522
 Red. masses --      1.1891                 1.1757                 1.1807
 Frc consts  --      1.2356                 1.4466                 1.8591
 IR Inten    --      9.8023                 2.6638                20.0182

                     13                     14                     15
                      A                      A                      A
 Frequencies --   1704.3778              3188.1370              3214.4551
 Red. masses --      3.6556                 1.0598                 1.0933
 Frc consts  --      6.2566                 6.3470                 6.6559
 IR Inten    --    141.0394                 5.2838                 6.7250

                     16                     17                     18
                      A                      A                      A
 Frequencies --   3303.1566              3554.7605              3675.6000
 Red. masses --      1.1158                 1.0487                 1.0972
 Frc consts  --      7.1729                 7.8080                 8.7339
 IR Inten    --      8.4724                12.1958                18.6566

 - Thermochemistry -
 -------------------
 Temperature   298.150 Kelvin.  Pressure   1.00000 Atm.
 Atom     1 has atomic number  6 and mass  12.00000

 Molecular mass:    43.04220 amu.
 Principal axes and moments of inertia in atomic units:
                           1         2         3
     Eigenvalues --    32.63519 182.79840 213.46759
           X            0.99985   0.00233   0.01737
           Y           -0.00215   0.99994  -0.01080
           Z           -0.01740   0.01076   0.99979
 This molecule is an asymmetric top.
 Rotational symmetry number  1.
 Rotational temperatures (Kelvin)      2.65400     0.47382     0.40575
 Rotational constants (GHZ):          55.30047     9.87285     8.45440
 Zero-point vibrational energy     181076.2 (Joules/Mol)
                                   43.27824 (Kcal/Mol)
 Warning -- explicit consideration of   3 degrees of freedom as
           vibrations may cause significant error
 Vibrational temperatures:    479.58   658.89   870.63  1027.78  1176.14
          (Kelvin)           1370.24  1422.38  1543.86  1845.99  1910.67
                             2079.22  2352.04  2452.22  4587.02  4624.88
                             4752.51  5114.51  5288.37

 Zero-point correction=                           0.068968 (Hartree/Particle)
 Thermal correction to Energy=                    0.072919
 Thermal correction to Enthalpy=                  0.073863
 Thermal correction to Gibbs Free Energy=         0.044274
 Sum of electronic and zero-point Energies=           -133.483850
 Sum of electronic and thermal Energies=              -133.479899
 Sum of electronic and thermal Enthalpies=            -133.478955
 Sum of electronic and thermal Free Energies=         -133.508544

                     E (Thermal)             CV                S
                      KCal/Mol        Cal/Mol-Kelvin    Cal/Mol-Kelvin
 Total                   45.758             12.950             62.276
 Electronic               0.000              0.000              0.000
 Translational            0.889              2.981             37.205
 Rotational               0.889              2.981             21.770
 Vibrational             43.980              6.989              3.301
 Vibration     1          0.715              1.609              1.244
 Vibration     2          0.816              1.343              0.772
 Vibration     3          0.964              1.021              0.441

 ## DEPERTURBED TRANSITIONS MOMENTS ##

 Electric dipole : Fundamental Bands
 ------------------------------------------------------------------------

 ## AFTER VARIATIONAL CORRECTION

 Electric dipole : Fundamental Bands
 ------------------------------------------------------------------------

                           ! Non-Optimized Parameters !
 Normal termination of Gaussian 16 at Tue Apr  8 15:14:27 2025.
