 Gaussian 16, Revision A.03,
 Gaussian 16:  ES64L-G16RevA.03 25-Dec-2016

 ----------------------------------------------
 # MP2/aug-cc-pVDZ opt freq=(vibrot,anharmonic)
 ----------------------------------------------

 ----
 blah
 ----
 Symbolic Z-matrix:
 Charge =  0 Multiplicity = 1

 SCF Done:  E(RHF) =  -230.971607229     A.U. after   13 cycles
 E2 =    -0.6261900143D+00 EUMP2 =    -0.23159779724287D+03
 SCF Done:  E(RHF) =  -230.979300729     A.U. after   13 cycles
 E2 =    -0.6232410318D+00 EUMP2 =    -0.23160254176110D+03
 SCF Done:  E(RHF) =  -230.979560392     A.U. after   14 cycles
 E2 =    -0.6232726451D+00 EUMP2 =    -0.23160283303697D+03
 SCF Done:  E(RHF) =  -230.980730924     A.U. after   14 cycles
 E2 =    -0.6228939327D+00 EUMP2 =    -0.23160362485704D+03
 SCF Done:  E(RHF) =  -230.980156896     A.U. after   11 cycles
 E2 =    -0.6236730163D+00 EUMP2 =    -0.23160382991194D+03
 SCF Done:  E(RHF) =  -230.979705624     A.U. after   10 cycles
 E2 =    -0.6241763886D+00 EUMP2 =    -0.23160388201303D+03
 SCF Done:  E(RHF) =  -230.979561435     A.U. after   11 cycles
 E2 =    -0.6243349937D+00 EUMP2 =    -0.23160389642888D+03
 SCF Done:  E(RHF) =  -230.979434082     A.U. after   12 cycles
 E2 =    -0.6244799308D+00 EUMP2 =    -0.23160391401318D+03
 SCF Done:  E(RHF) =  -230.979467674     A.U. after   11 cycles
 E2 =    -0.6244545086D+00 EUMP2 =    -0.23160392218237D+03
 SCF Done:  E(RHF) =  -230.979595725     A.U. after   10 cycles
 E2 =    -0.6243372331D+00 EUMP2 =    -0.23160393295851D+03
 E2 =    -0.6242409356D+00 EUMP2 =    -0.23160393762971D+03
 E2 =    -0.6242311972D+00 EUMP2 =    -0.23160393857707D+03
 Optimization completed.
    -- Stationary point found.
 Normal termination of Gaussian 16 at Fri Jul  1 15:27:31 2022.

 ----------------------------------------------------------------------
 #N Geom=AllCheck Guess=TCheck SCRF=Check GenChk RMP2(FC)/Aug-CC-pVDZ F
 req
 ----------------------------------------------------------------------

 Structure from the checkpoint file:  "/tmp/Gau-13976.chk"
 ----
 blah
 ----
 Charge =  0 Multiplicity = 1

                         Standard orientation:
 ---------------------------------------------------------------------
 Center     Atomic      Atomic             Coordinates (Angstroms)
 Number     Number       Type             X           Y           Z
 ---------------------------------------------------------------------
      1          8           0        0.999746    0.544123    0.000000
      2          9           0        1.199969   -0.893323    0.000000
      3          1           0        0.000000    0.526069    0.000000
      4          7           0       -1.767106    0.340332    0.000000
      5          1           0       -2.240993    0.721424    0.818643
      6          1           0       -2.240993    0.721424   -0.818643
      7          1           0       -1.945957   -0.664316    0.000000
 ---------------------------------------------------------------------

 E2 =    -0.6242311979D+00 EUMP2 =    -0.23160393857779D+03
 E2 =    -0.6242311979D+00 EUMP2 =    -0.23160393857779D+03
 E2 =    -0.6242323333D+00 EUMP2 =    -0.23160393857598D+03
 E2 =    -0.6242323333D+00 EUMP2 =    -0.23160393857598D+03
 E2 =    -0.6242323333D+00 EUMP2 =    -0.23160393857598D+03
 E2 =    -0.6242323333D+00 EUMP2 =    -0.23160393857598D+03
 E2 =    -0.6242272642D+00 EUMP2 =    -0.23160393850397D+03
 E2 =    -0.6242272642D+00 EUMP2 =    -0.23160393850397D+03
 SCF Done:  E(RHF) =  -230.979689221     A.U. after    9 cycles
 E2 =    -0.6242307524D+00 EUMP2 =    -0.23160391997286D+03
 E2 =    -0.6242307524D+00 EUMP2 =    -0.23160391997286D+03
 SCF Done:  E(RHF) =  -230.979682220     A.U. after    9 cycles
 E2 =    -0.6242381811D+00 EUMP2 =    -0.23160392040101D+03
 E2 =    -0.6242381811D+00 EUMP2 =    -0.23160392040101D+03
 SCF Done:  E(RHF) =  -230.979166763     A.U. after   11 cycles
 E2 =    -0.6247037703D+00 EUMP2 =    -0.23160387053325D+03
 E2 =    -0.6247037703D+00 EUMP2 =    -0.23160387053325D+03
 SCF Done:  E(RHF) =  -230.980108910     A.U. after   11 cycles
 E2 =    -0.6237561264D+00 EUMP2 =    -0.23160386503679D+03
 E2 =    -0.6237561264D+00 EUMP2 =    -0.23160386503679D+03
 SCF Done:  E(RHF) =  -230.979192241     A.U. after    9 cycles
 E2 =    -0.6246655794D+00 EUMP2 =    -0.23160385782049D+03
 E2 =    -0.6246655794D+00 EUMP2 =    -0.23160385782049D+03
 SCF Done:  E(RHF) =  -230.980056398     A.U. after    9 cycles
 E2 =    -0.6237992133D+00 EUMP2 =    -0.23160385561168D+03
 E2 =    -0.6237992133D+00 EUMP2 =    -0.23160385561168D+03
 SCF Done:  E(RHF) =  -230.979630374     A.U. after    9 cycles
 E2 =    -0.6242199369D+00 EUMP2 =    -0.23160385031042D+03
 E2 =    -0.6242199369D+00 EUMP2 =    -0.23160385031042D+03
 SCF Done:  E(RHF) =  -230.979607303     A.U. after    8 cycles
 E2 =    -0.6242415978D+00 EUMP2 =    -0.23160384890038D+03
 E2 =    -0.6242415978D+00 EUMP2 =    -0.23160384890038D+03
 SCF Done:  E(RHF) =  -230.979618602     A.U. after    8 cycles
 E2 =    -0.6242307234D+00 EUMP2 =    -0.23160384932493D+03
 E2 =    -0.6242307234D+00 EUMP2 =    -0.23160384932493D+03
 SCF Done:  E(RHF) =  -230.979618602     A.U. after    8 cycles
 E2 =    -0.6242307234D+00 EUMP2 =    -0.23160384932494D+03
 E2 =    -0.6242307234D+00 EUMP2 =    -0.23160384932494D+03

 Alpha  occ. eigenvalues --  -26.31756 -20.65567 -15.59837  -1.60198  -1.27429
 Alpha  occ. eigenvalues --   -1.18775  -0.73458  -0.67850  -0.67145  -0.66807
 Alpha  occ. eigenvalues --   -0.64106  -0.57762  -0.50315  -0.47801
 Alpha virt. eigenvalues --    0.02390   0.04987   0.05330   0.07640   0.13556
 Alpha virt. eigenvalues --    0.15980   0.17771   0.18467   0.18848   0.22525
 Alpha virt. eigenvalues --    0.24493   0.25556   0.26274   0.26772   0.29941

 Mulliken charges:
               1
     1  O   -0.119649
     2  F   -0.273090
     3  H    0.420275
     4  N   -0.156406
     5  H    0.054923
     6  H    0.032522
     7  H    0.041424
 Sum of Mulliken charges =   0.00000

 Dipole moment (field-independent basis, Debye):
    X=             -4.5701    Y=              0.3476    Z=              0.0063  Tot=              4.5833
 Quadrupole moment (field-independent basis, Debye-Ang):
   XX=            -15.2759   YY=            -17.8019   ZZ=            -18.0114
   XY=             -1.1319   XZ=             -0.0229   YZ=              0.0133

  Exact polarizability:  28.623  -1.444  25.909  -0.070   0.050  20.416
 Approx polarizability:  18.884  -1.097  23.225  -0.054   0.041  16.752

                      1                      2                      3
                     A"                     A'                     A"
 Frequencies --     24.8264                87.1368               248.1519
 Red. masses --      1.1320                 3.6077                 1.1121
 Frc consts  --      0.0004                 0.0161                 0.0403
 IR Inten    --      0.0403                 3.7568                10.3551

                      4                      5                      6
                     A'                     A'                     A"
 Frequencies --    266.6865               368.5649               873.3477
 Red. masses --      3.8653                 1.4008                 1.0506
 Frc consts  --      0.1620                 0.1121                 0.4722
 IR Inten    --     18.5507                31.1604                99.3601

                      7                      8                      9
                     A'                     A'                     A'
 Frequencies --    942.2977              1133.9800              1578.1773
 Red. masses --     16.6280                 1.1885                 1.0702
 Frc consts  --      8.6989                 0.9005                 1.5705
 IR Inten    --      3.5560               143.9967                54.2718

                     10                     11                     12
                     A"                     A'                     A'
 Frequencies --   1647.6128              1649.8678              3236.1447
 Red. masses --      1.0618                 1.0553                 1.0722
 Frc consts  --      1.6983                 1.6924                 6.6155
 IR Inten    --     16.3357                 5.7184              1107.5480

                     13                     14                     15
                     A'                     A'                     A"
 Frequencies --   3480.5385              3628.4976              3634.2829
 Red. masses --      1.0279                 1.0890                 1.0892
 Frc consts  --      7.3364                 8.4475                 8.4761
 IR Inten    --      1.2420                17.9731                16.9470

 - Thermochemistry -
 -------------------
 Temperature   298.150 Kelvin.  Pressure   1.00000 Atm.
 Atom     1 has atomic number  8 and mass  15.99491

 Molecular mass:    53.02769 amu.
 Principal axes and moments of inertia in atomic units:
                           1         2         3
     Eigenvalues --    67.22709 382.12949 439.70868
           X            0.96698   0.25483   0.00000
           Y           -0.25483   0.96698   0.00000
           Z            0.00000  -0.00000   1.00000
 This molecule is an asymmetric top.
 Rotational symmetry number  1.
 Rotational temperatures (Kelvin)      1.28838     0.22666     0.19698
 Rotational constants (GHZ):          26.84545     4.72285     4.10440
 Zero-point vibrational energy     136375.0 (Joules/Mol)
                                   32.59440 (Kcal/Mol)
 Warning -- explicit consideration of   5 degrees of freedom as
           vibrations may cause significant error
 Vibrational temperatures:     35.72   125.37   357.04   383.70   530.28
          (Kelvin)           1256.55  1355.76  1631.54  2270.65  2370.55
                             2373.79  4656.09  5007.72  5220.60  5228.92

 Zero-point correction=                           0.051942 (Hartree/Particle)
 Thermal correction to Energy=                    0.057853
 Thermal correction to Enthalpy=                  0.058798
 Thermal correction to Gibbs Free Energy=         0.022455
 Sum of electronic and zero-point Energies=           -231.551996
 Sum of electronic and thermal Energies=              -231.546085
 Sum of electronic and thermal Enthalpies=            -231.545141
 Sum of electronic and thermal Free Energies=         -231.581484

                     E (Thermal)             CV                S
                      KCal/Mol        Cal/Mol-Kelvin    Cal/Mol-Kelvin
 Total                   36.304             16.321             76.490
 Electronic               0.000              0.000              0.000
 Translational            0.889              2.981             37.827
 Rotational               0.889              2.981             23.939
 Vibrational             34.526             10.360             14.724
 Vibration     1          0.593              1.985              6.205
 Vibration     2          0.601              1.958              3.723
 Vibration     3          0.662              1.766              1.744
 Vibration     4          0.672              1.734              1.618
 Vibration     5          0.741              1.537              1.086

 ## DEPERTURBED TRANSITIONS MOMENTS ##

 Electric dipole : Fundamental Bands
 ------------------------------------------------------------------------

 ## AFTER VARIATIONAL CORRECTION

 Electric dipole : Fundamental Bands
 ------------------------------------------------------------------------

 Optimization completed.
    -- Stationary point found.
 Normal termination of Gaussian 16 at Fri Jul  1 15:43:12 2022.
