 Gaussian 16, Revision A.03,
 Gaussian 16:  ES64L-G16RevA.03 25-Dec-2016

 ----------------------------------------------
 # MP2/aug-cc-pVTZ opt freq=(vibrot,anharmonic)
 ----------------------------------------------

 ----
 bleh
 ----
 Symbolic Z-matrix:
 Charge =  0 Multiplicity = 1

 SCF Done:  E(RHF) =  -250.876017204     A.U. after   13 cycles
 E2 =    -0.7923980558D+00 EUMP2 =    -0.25166841525971D+03
 SCF Done:  E(RHF) =  -250.877803456     A.U. after   11 cycles
 E2 =    -0.7908251599D+00 EUMP2 =    -0.25166862861578D+03
 SCF Done:  E(RHF) =  -250.878259470     A.U. after   10 cycles
 E2 =    -0.7903847340D+00 EUMP2 =    -0.25166864420386D+03
 SCF Done:  E(RHF) =  -250.878228066     A.U. after    9 cycles
 E2 =    -0.7904174350D+00 EUMP2 =    -0.25166864550140D+03
 Optimization completed.
    -- Stationary point found.
 Normal termination of Gaussian 16 at Mon Dec 20 12:19:21 2021.

 ----------------------------------------------------------------------
 #N Geom=AllCheck Guess=TCheck SCRF=Check GenChk RMP2(FC)/Aug-CC-pVTZ F
 req
 ----------------------------------------------------------------------

 Structure from the checkpoint file:  "/gscratch/scrubbed/gds001/Gau-1676.chk"
 ----
 bleh
 ----
 Charge =  0 Multiplicity = 1

                         Standard orientation:
 ---------------------------------------------------------------------
 Center     Atomic      Atomic             Coordinates (Angstroms)
 Number     Number       Type             X           Y           Z
 ---------------------------------------------------------------------
      1          8           0        1.818651    0.000705   -0.000057
      2          8           0       -0.842468    0.746157   -0.000076
      3          1           0        0.116890    0.533744   -0.000237
      4          9           0       -1.329214   -0.600533    0.000132
      5          1           0        2.018759   -0.551897   -0.762614
      6          1           0        2.017809   -0.551945    0.762717
 ---------------------------------------------------------------------

 SCF Done:  E(RHF) =  -250.878228066     A.U. after    1 cycles
 E2 =    -0.7904174336D+00 EUMP2 =    -0.25166864550000D+03
 E2 =    -0.7904174336D+00 EUMP2 =    -0.25166864550000D+03
 SCF Done:  E(RHF) =  -250.878226143     A.U. after    9 cycles
 E2 =    -0.7904193494D+00 EUMP2 =    -0.25166864549196D+03
 E2 =    -0.7904193494D+00 EUMP2 =    -0.25166864549196D+03
 SCF Done:  E(RHF) =  -250.878226130     A.U. after    9 cycles
 E2 =    -0.7904193584D+00 EUMP2 =    -0.25166864548845D+03
 E2 =    -0.7904193584D+00 EUMP2 =    -0.25166864548845D+03
 SCF Done:  E(RHF) =  -250.878222322     A.U. after    8 cycles
 E2 =    -0.7904228355D+00 EUMP2 =    -0.25166864515758D+03
 E2 =    -0.7904228355D+00 EUMP2 =    -0.25166864515758D+03
 SCF Done:  E(RHF) =  -250.878233003     A.U. after    8 cycles
 E2 =    -0.7904127488D+00 EUMP2 =    -0.25166864575222D+03
 E2 =    -0.7904127488D+00 EUMP2 =    -0.25166864575222D+03
 SCF Done:  E(RHF) =  -250.878225660     A.U. after    8 cycles
 E2 =    -0.7904195367D+00 EUMP2 =    -0.25166864519691D+03
 E2 =    -0.7904195367D+00 EUMP2 =    -0.25166864519691D+03
 E2 =    -0.7904194974D+00 EUMP2 =    -0.25166864511281D+03
 E2 =    -0.7904194974D+00 EUMP2 =    -0.25166864511281D+03
 E2 =    -0.7904067174D+00 EUMP2 =    -0.25166864484842D+03
 E2 =    -0.7904067174D+00 EUMP2 =    -0.25166864484842D+03
 SCF Done:  E(RHF) =  -250.878270633     A.U. after    9 cycles
 E2 =    -0.7903608532D+00 EUMP2 =    -0.25166863148577D+03
 E2 =    -0.7903608532D+00 EUMP2 =    -0.25166863148577D+03
 SCF Done:  E(RHF) =  -250.878146685     A.U. after    9 cycles
 E2 =    -0.7904818125D+00 EUMP2 =    -0.25166862849768D+03
 E2 =    -0.7904818125D+00 EUMP2 =    -0.25166862849768D+03
 SCF Done:  E(RHF) =  -250.878287891     A.U. after    9 cycles
 E2 =    -0.7903381138D+00 EUMP2 =    -0.25166862600478D+03
 E2 =    -0.7903381138D+00 EUMP2 =    -0.25166862600478D+03
 SCF Done:  E(RHF) =  -250.878123664     A.U. after    9 cycles
 E2 =    -0.7905052967D+00 EUMP2 =    -0.25166862896064D+03
 E2 =    -0.7905052967D+00 EUMP2 =    -0.25166862896064D+03
 SCF Done:  E(RHF) =  -250.878623926     A.U. after   10 cycles
 E2 =    -0.7899354223D+00 EUMP2 =    -0.25166855934828D+03
 E2 =    -0.7899354223D+00 EUMP2 =    -0.25166855934828D+03
 SCF Done:  E(RHF) =  -250.877664800     A.U. after   10 cycles
 E2 =    -0.7908994788D+00 EUMP2 =    -0.25166856427925D+03
 E2 =    -0.7908994788D+00 EUMP2 =    -0.25166856427925D+03
 SCF Done:  E(RHF) =  -250.878677157     A.U. after    8 cycles
 E2 =    -0.7898687255D+00 EUMP2 =    -0.25166854588263D+03
 E2 =    -0.7898687255D+00 EUMP2 =    -0.25166854588263D+03
 SCF Done:  E(RHF) =  -250.877579807     A.U. after    8 cycles
 E2 =    -0.7909692452D+00 EUMP2 =    -0.25166854905201D+03
 E2 =    -0.7909692452D+00 EUMP2 =    -0.25166854905201D+03
 SCF Done:  E(RHF) =  -250.878124328     A.U. after    7 cycles
 E2 =    -0.7904169217D+00 EUMP2 =    -0.25166854124953D+03
 E2 =    -0.7904169217D+00 EUMP2 =    -0.25166854124953D+03
 SCF Done:  E(RHF) =  -250.878124498     A.U. after    7 cycles
 E2 =    -0.7904167449D+00 EUMP2 =    -0.25166854124273D+03
 E2 =    -0.7904167449D+00 EUMP2 =    -0.25166854124273D+03

 Alpha  occ. eigenvalues --  -26.32027 -20.65938 -20.61276  -1.61875  -1.39965
 Alpha  occ. eigenvalues --   -1.28303  -0.76100  -0.75424  -0.69577  -0.66080
 Alpha  occ. eigenvalues --   -0.63673  -0.58367  -0.54887  -0.51458
 Alpha virt. eigenvalues --    0.01942   0.04173   0.06078   0.10456   0.13062
 Alpha virt. eigenvalues --    0.14927   0.15914   0.16373   0.17244   0.21179
 Alpha virt. eigenvalues --    0.21535   0.22128   0.22710   0.24454   0.25731

 Mulliken charges:
               1
     1  O   -0.377051
     2  O   -0.182548
     3  H    0.312766
     4  F   -0.181101
     5  H    0.207045
     6  H    0.220888
 Sum of Mulliken charges =  -0.00000

 Dipole moment (field-independent basis, Debye):
    X=              3.3640    Y=             -1.7207    Z=              0.0161  Tot=              3.7786
 Quadrupole moment (field-independent basis, Debye-Ang):
   XX=            -16.6413   YY=            -17.4855   ZZ=            -15.8615
   XY=             -3.1553   XZ=              0.0369   YZ=             -0.0241

  Exact polarizability:  22.719   0.991  22.053   0.030  -0.059  17.845
 Approx polarizability:  15.315   1.386  19.063   0.019  -0.056  14.254

                      1                      2                      3
                      A                      A                      A
 Frequencies --     50.1765                84.2191               228.2637
 Red. masses --      1.1199                 3.6617                 1.0694
 Frc consts  --      0.0017                 0.0153                 0.0328
 IR Inten    --     45.5914                20.8373                 0.1663

                      4                      5                      6
                      A                      A                      A
 Frequencies --    235.2866               305.7007               754.1292
 Red. masses --      7.7805                 1.3288                 1.0426
 Frc consts  --      0.2538                 0.0732                 0.3493
 IR Inten    --     31.9657               200.7933               103.7364

                      7                      8                      9
                      A                      A                      A
 Frequencies --    983.7629              1515.0620              1633.0441
 Red. masses --     16.8549                 1.0760                 1.0828
 Frc consts  --      9.6108                 1.4553                 1.7013
 IR Inten    --      3.3268                57.1296                66.7039

                     10                     11                     12
                      A                      A                      A
 Frequencies --   3518.5908              3808.6515              3927.5136
 Red. masses --      1.0694                 1.0448                 1.0818
 Frc consts  --      7.8007                 8.9295                 9.8319
 IR Inten    --    629.3619                16.8038               110.1717

 - Thermochemistry -
 -------------------
 Temperature   298.150 Kelvin.  Pressure   1.00000 Atm.
 Atom     1 has atomic number  8 and mass  15.99491

 Molecular mass:    54.01171 amu.
 Principal axes and moments of inertia in atomic units:
                           1         2         3
     Eigenvalues --    63.32488 381.26801 436.21931
           X            0.99945  -0.03309   0.00004
           Y            0.03309   0.99945   0.00016
           Z           -0.00004  -0.00016   1.00000
 This molecule is an asymmetric top.
 Rotational symmetry number  1.
 Rotational temperatures (Kelvin)      1.36777     0.22717     0.19856
 Rotational constants (GHZ):          28.49972     4.73352     4.13723
 Zero-point vibrational energy     101948.2 (Joules/Mol)
                                   24.36619 (Kcal/Mol)
 Warning -- explicit consideration of   5 degrees of freedom as
           vibrations may cause significant error
 Vibrational temperatures:     72.19   121.17   328.42   338.52   439.84
          (Kelvin)           1085.02  1415.42  2179.84  2349.59  5062.47
                             5479.80  5650.82

 Zero-point correction=                           0.038830 (Hartree/Particle)
 Thermal correction to Energy=                    0.044840
 Thermal correction to Enthalpy=                  0.045784
 Thermal correction to Gibbs Free Energy=         0.009753
 Sum of electronic and zero-point Energies=           -251.629815
 Sum of electronic and thermal Energies=              -251.623806
 Sum of electronic and thermal Enthalpies=            -251.622861
 Sum of electronic and thermal Free Energies=         -251.658892

                     E (Thermal)             CV                S
                      KCal/Mol        Cal/Mol-Kelvin    Cal/Mol-Kelvin
 Total                   28.138             16.389             75.834
 Electronic               0.000              0.000              0.000
 Translational            0.889              2.981             37.882
 Rotational               0.889              2.981             23.869
 Vibrational             26.360             10.428             14.082
 Vibration     1          0.595              1.978              4.810
 Vibration     2          0.601              1.960              3.790
 Vibration     3          0.651              1.798              1.893
 Vibration     4          0.655              1.787              1.838
 Vibration     5          0.696              1.663              1.385

 ## DEPERTURBED TRANSITIONS MOMENTS ##

 Electric dipole : Fundamental Bands
 ------------------------------------------------------------------------

 ## AFTER VARIATIONAL CORRECTION

 Electric dipole : Fundamental Bands
 ------------------------------------------------------------------------

                           ! Non-Optimized Parameters !
 Normal termination of Gaussian 16 at Mon Dec 20 14:33:05 2021.
