 Gaussian 16, Revision A.03,
 Gaussian 16:  ES64L-G16RevA.03 25-Dec-2016

 --------------------------------------------------------------
 # MP2/aug-cc-pVDZ opt=(MaxCycles=100) freq=(vibrot,anharmonic)
 --------------------------------------------------------------

 ----
 bleh
 ----
 Symbolic Z-matrix:
 Charge =  0 Multiplicity = 1

 SCF Done:  E(RHF) =  -250.806803166     A.U. after   13 cycles
 E2 =    -0.6398220168D+00 EUMP2 =    -0.25144662518280D+03
 SCF Done:  E(RHF) =  -250.811830748     A.U. after   14 cycles
 E2 =    -0.6406957805D+00 EUMP2 =    -0.25145252652878D+03
 SCF Done:  E(RHF) =  -250.811381202     A.U. after   12 cycles
 E2 =    -0.6419929570D+00 EUMP2 =    -0.25145337415939D+03
 SCF Done:  E(RHF) =  -250.811189992     A.U. after   12 cycles
 E2 =    -0.6423018285D+00 EUMP2 =    -0.25145349182088D+03
 SCF Done:  E(RHF) =  -250.811271470     A.U. after   11 cycles
 E2 =    -0.6422709922D+00 EUMP2 =    -0.25145354246176D+03
 SCF Done:  E(RHF) =  -250.811526271     A.U. after   11 cycles
 E2 =    -0.6420525808D+00 EUMP2 =    -0.25145357885136D+03
 SCF Done:  E(RHF) =  -250.811751541     A.U. after   11 cycles
 E2 =    -0.6418408838D+00 EUMP2 =    -0.25145359242510D+03
 SCF Done:  E(RHF) =  -250.811823494     A.U. after   11 cycles
 E2 =    -0.6417747313D+00 EUMP2 =    -0.25145359822567D+03
 SCF Done:  E(RHF) =  -250.811926644     A.U. after   12 cycles
 E2 =    -0.6416886003D+00 EUMP2 =    -0.25145361524392D+03
 SCF Done:  E(RHF) =  -250.811925075     A.U. after   12 cycles
 E2 =    -0.6417142322D+00 EUMP2 =    -0.25145363930742D+03
 E2 =    -0.6419167549D+00 EUMP2 =    -0.25145365595810D+03
 E2 =    -0.6419706402D+00 EUMP2 =    -0.25145365734088D+03
 E2 =    -0.6419694181D+00 EUMP2 =    -0.25145365763701D+03
 E2 =    -0.6419643989D+00 EUMP2 =    -0.25145365796291D+03
 E2 =    -0.6419352582D+00 EUMP2 =    -0.25145365851269D+03
 E2 =    -0.6418039639D+00 EUMP2 =    -0.25145366401697D+03
 E2 =    -0.6429665402D+00 EUMP2 =    -0.25145225654328D+03
 E2 =    -0.6623163584D+00 EUMP2 =    -0.25142536005954D+03
 E2 =    -0.6619641382D+00 EUMP2 =    -0.25142379181726D+03
 E2 =    -0.6418162705D+00 EUMP2 =    -0.25145366401629D+03
 Optimization completed.
    -- Stationary point found.
 Normal termination of Gaussian 16 at Fri Dec 17 14:42:48 2021.

 ----------------------------------------------------------------------
 #N Geom=AllCheck Guess=TCheck SCRF=Check GenChk RMP2(FC)/Aug-CC-pVDZ F
 req
 ----------------------------------------------------------------------

 Structure from the checkpoint file:  "/gscratch/scrubbed/gds001/Gau-9597.chk"
 ----
 bleh
 ----
 Charge =  0 Multiplicity = 1

                         Standard orientation:
 ---------------------------------------------------------------------
 Center     Atomic      Atomic             Coordinates (Angstroms)
 Number     Number       Type             X           Y           Z
 ---------------------------------------------------------------------
      1          8           0       -1.830450   -0.002531    0.000010
      2          8           0        0.837329    0.754930   -0.000003
      3          1           0       -0.121871    0.522684    0.000106
      4          9           0        1.347653   -0.602375    0.000008
      5          1           0       -2.031276   -0.560333    0.763989
      6          1           0       -2.030756   -0.560173   -0.764225
 ---------------------------------------------------------------------

 SCF Done:  E(RHF) =  -250.811804991     A.U. after   10 cycles
 E2 =    -0.6427478477D+00 EUMP2 =    -0.25145455283883D+03
 E2 =    -0.6427478477D+00 EUMP2 =    -0.25145455283883D+03
 SCF Done:  E(RHF) =  -250.811708979     A.U. after   10 cycles
 E2 =    -0.6428436863D+00 EUMP2 =    -0.25145455266558D+03
 E2 =    -0.6428436863D+00 EUMP2 =    -0.25145455266558D+03
 SCF Done:  E(RHF) =  -250.811833894     A.U. after   10 cycles
 E2 =    -0.6427160065D+00 EUMP2 =    -0.25145454990057D+03
 E2 =    -0.6427160065D+00 EUMP2 =    -0.25145454990057D+03
 SCF Done:  E(RHF) =  -250.811673697     A.U. after   10 cycles
 E2 =    -0.6428765299D+00 EUMP2 =    -0.25145455022694D+03
 E2 =    -0.6428765299D+00 EUMP2 =    -0.25145455022694D+03
 SCF Done:  E(RHF) =  -250.812193880     A.U. after   11 cycles
 E2 =    -0.6422889936D+00 EUMP2 =    -0.25145448287372D+03
 E2 =    -0.6422889936D+00 EUMP2 =    -0.25145448287372D+03
 SCF Done:  E(RHF) =  -250.811192382     A.U. after   11 cycles
 E2 =    -0.6432948668D+00 EUMP2 =    -0.25145448724845D+03
 E2 =    -0.6432948668D+00 EUMP2 =    -0.25145448724845D+03
 SCF Done:  E(RHF) =  -250.812280788     A.U. after    9 cycles
 E2 =    -0.6421884942D+00 EUMP2 =    -0.25145446928234D+03
 E2 =    -0.6421884942D+00 EUMP2 =    -0.25145446928234D+03
 SCF Done:  E(RHF) =  -250.811074064     A.U. after    9 cycles
 E2 =    -0.6433983182D+00 EUMP2 =    -0.25145447238250D+03
 E2 =    -0.6433983182D+00 EUMP2 =    -0.25145447238250D+03
 SCF Done:  E(RHF) =  -250.811672961     A.U. after    8 cycles
 E2 =    -0.6427913093D+00 EUMP2 =    -0.25145446427039D+03
 E2 =    -0.6427913093D+00 EUMP2 =    -0.25145446427039D+03
 SCF Done:  E(RHF) =  -250.811673113     A.U. after    8 cycles
 E2 =    -0.6427911197D+00 EUMP2 =    -0.25145446423308D+03
 E2 =    -0.6427911197D+00 EUMP2 =    -0.25145446423308D+03

 Alpha  occ. eigenvalues --  -26.33156 -20.67348 -20.62456  -1.61661  -1.40132
 Alpha  occ. eigenvalues --   -1.29080  -0.75967  -0.75192  -0.69172  -0.65805
 Alpha  occ. eigenvalues --   -0.63681  -0.58589  -0.54965  -0.51854
 Alpha virt. eigenvalues --    0.02408   0.05044   0.07166   0.12106   0.16169
 Alpha virt. eigenvalues --    0.19034   0.20295   0.20313   0.22395   0.24723
 Alpha virt. eigenvalues --    0.26925   0.27127   0.28226   0.30296   0.30878

 Mulliken charges:
               1
     1  O   -0.329060
     2  O   -0.072026
     3  H    0.338032
     4  F   -0.262339
     5  H    0.154086
     6  H    0.171307
 Sum of Mulliken charges =   0.00000

 Dipole moment (field-independent basis, Debye):
    X=             -3.4050    Y=             -1.7468    Z=             -0.0156  Tot=              3.8270
 Quadrupole moment (field-independent basis, Debye-Ang):
   XX=            -16.8622   YY=            -17.5716   ZZ=            -16.1171
   XY=              3.2056   XZ=              0.0368   YZ=              0.0240

  Exact polarizability:  22.368  -1.112  21.732   0.031   0.060  17.357
 Approx polarizability:  15.164  -1.545  19.063   0.019   0.055  13.979

                      1                      2                      3
                      A                      A                      A
 Frequencies --     47.8565                77.5087               228.3298
 Red. masses --      1.1197                 3.7281                 1.0690
 Frc consts  --      0.0015                 0.0132                 0.0328
 IR Inten    --     46.7573                19.5966                 0.0823

                      4                      5                      6
                      A                      A                      A
 Frequencies --    238.1422               313.9617               753.8983
 Red. masses --      7.8927                 1.3198                 1.0424
 Frc consts  --      0.2637                 0.0767                 0.3491
 IR Inten    --     31.2123               199.1160               105.7505

                      7                      8                      9
                      A                      A                      A
 Frequencies --    941.1186              1500.9387              1628.1326
 Red. masses --     16.8216                 1.0750                 1.0817
 Frc consts  --      8.7782                 1.4269                 1.6894
 IR Inten    --      2.9370                58.8908                63.4701

                     10                     11                     12
                      A                      A                      A
 Frequencies --   3502.2478              3791.2730              3917.7347
 Red. masses --      1.0690                 1.0455                 1.0814
 Frc consts  --      7.7253                 8.8537                 9.7789
 IR Inten    --    622.4913                15.6474               100.6517

 - Thermochemistry -
 -------------------
 Temperature   298.150 Kelvin.  Pressure   1.00000 Atm.
 Atom     1 has atomic number  8 and mass  15.99491

 Molecular mass:    54.01171 amu.
 Principal axes and moments of inertia in atomic units:
                           1         2         3
     Eigenvalues --    64.25872 386.94838 442.80183
           X            0.99945   0.03330   0.00000
           Y           -0.03330   0.99945   0.00000
           Z           -0.00000  -0.00000   1.00000
 This molecule is an asymmetric top.
 Rotational symmetry number  1.
 Rotational temperatures (Kelvin)      1.34789     0.22384     0.19560
 Rotational constants (GHZ):          28.08555     4.66404     4.07573
 Zero-point vibrational energy     101330.5 (Joules/Mol)
                                   24.21858 (Kcal/Mol)
 Warning -- explicit consideration of   5 degrees of freedom as
           vibrations may cause significant error
 Vibrational temperatures:     68.85   111.52   328.52   342.63   451.72
          (Kelvin)           1084.69  1354.06  2159.52  2342.52  5038.95
                             5454.80  5636.75

 Zero-point correction=                           0.038595 (Hartree/Particle)
 Thermal correction to Energy=                    0.044616
 Thermal correction to Enthalpy=                  0.045560
 Thermal correction to Gibbs Free Energy=         0.009408
 Sum of electronic and zero-point Energies=           -251.415973
 Sum of electronic and thermal Energies=              -251.409952
 Sum of electronic and thermal Enthalpies=            -251.409008
 Sum of electronic and thermal Free Energies=         -251.445160

                     E (Thermal)             CV                S
                      KCal/Mol        Cal/Mol-Kelvin    Cal/Mol-Kelvin
 Total                   27.997             16.429             76.088
 Electronic               0.000              0.000              0.000
 Translational            0.889              2.981             37.882
 Rotational               0.889              2.981             23.913
 Vibrational             26.220             10.468             14.292
 Vibration     1          0.595              1.978              4.904
 Vibration     2          0.599              1.964              3.953
 Vibration     3          0.651              1.798              1.892
 Vibration     4          0.656              1.782              1.817
 Vibration     5          0.702              1.647              1.341

 ## DEPERTURBED TRANSITIONS MOMENTS ##

 Electric dipole : Fundamental Bands
 ------------------------------------------------------------------------

 ## AFTER VARIATIONAL CORRECTION

 Electric dipole : Fundamental Bands
 ------------------------------------------------------------------------

 Optimization completed.
    -- Stationary point found.
 Normal termination of Gaussian 16 at Fri Dec 17 14:55:14 2021.
