 Gaussian 16, Revision A.03,
 Gaussian 16:  ES64L-G16RevA.03 25-Dec-2016

 ----------------------------------------------
 # MP2/aug-cc-pVtZ opt freq=(vibrot,anharmonic)
 ----------------------------------------------

 ----
 blah
 ----
 Symbolic Z-matrix:
 Charge =  0 Multiplicity = 1

 SCF Done:  E(RHF) =  -231.031178336     A.U. after   13 cycles
 E2 =    -0.7671859172D+00 EUMP2 =    -0.23179836425328D+03
 SCF Done:  E(RHF) =  -231.041013024     A.U. after   12 cycles
 E2 =    -0.7628360594D+00 EUMP2 =    -0.23180384908306D+03
 SCF Done:  E(RHF) =  -231.041392485     A.U. after   12 cycles
 E2 =    -0.7625727004D+00 EUMP2 =    -0.23180396518531D+03
 SCF Done:  E(RHF) =  -231.043111024     A.U. after   11 cycles
 E2 =    -0.7617451760D+00 EUMP2 =    -0.23180485620032D+03
 SCF Done:  E(RHF) =  -231.042264235     A.U. after   11 cycles
 E2 =    -0.7628454324D+00 EUMP2 =    -0.23180510966748D+03
 SCF Done:  E(RHF) =  -231.041573144     A.U. after    9 cycles
 E2 =    -0.7636080784D+00 EUMP2 =    -0.23180518122239D+03
 SCF Done:  E(RHF) =  -231.041408055     A.U. after    9 cycles
 E2 =    -0.7637926812D+00 EUMP2 =    -0.23180520073625D+03
 SCF Done:  E(RHF) =  -231.041310306     A.U. after   10 cycles
 E2 =    -0.7639057290D+00 EUMP2 =    -0.23180521603537D+03
 SCF Done:  E(RHF) =  -231.041302474     A.U. after    9 cycles
 E2 =    -0.7639278023D+00 EUMP2 =    -0.23180523027610D+03
 SCF Done:  E(RHF) =  -231.041435024     A.U. after    9 cycles
 E2 =    -0.7638107432D+00 EUMP2 =    -0.23180524576695D+03
 E2 =    -0.7637237879D+00 EUMP2 =    -0.23180524992803D+03
 E2 =    -0.7637119692D+00 EUMP2 =    -0.23180525065817D+03
 Optimization completed.
    -- Stationary point found.
 Normal termination of Gaussian 16 at Fri Jul  1 15:33:44 2022.

 ----------------------------------------------------------------------
 #N Geom=AllCheck Guess=TCheck SCRF=Check GenChk RMP2(FC)/Aug-CC-pVTZ F
 req
 ----------------------------------------------------------------------

 Structure from the checkpoint file:  "/tmp/Gau-25889.chk"
 ----
 blah
 ----
 Charge =  0 Multiplicity = 1

                         Standard orientation:
 ---------------------------------------------------------------------
 Center     Atomic      Atomic             Coordinates (Angstroms)
 Number     Number       Type             X           Y           Z
 ---------------------------------------------------------------------
      1          8           0        0.995920    0.546743    0.000000
      2          9           0        1.191094   -0.873411   -0.000000
      3          1           0        0.000000    0.536608    0.000000
      4          7           0       -1.759788    0.321340   -0.000000
      5          1           0       -2.232308    0.691109    0.815429
      6          1           0       -2.232308    0.691109   -0.815429
      7          1           0       -1.904066   -0.681448   -0.000000
 ---------------------------------------------------------------------

 E2 =    -0.7637119695D+00 EUMP2 =    -0.23180525065840D+03
 E2 =    -0.7637119695D+00 EUMP2 =    -0.23180525065840D+03
 E2 =    -0.7637129218D+00 EUMP2 =    -0.23180525067037D+03
 E2 =    -0.7637129218D+00 EUMP2 =    -0.23180525067037D+03
 E2 =    -0.7637129218D+00 EUMP2 =    -0.23180525067037D+03
 E2 =    -0.7637129218D+00 EUMP2 =    -0.23180525067037D+03
 E2 =    -0.7637068287D+00 EUMP2 =    -0.23180525059971D+03
 E2 =    -0.7637068287D+00 EUMP2 =    -0.23180525059971D+03
 SCF Done:  E(RHF) =  -231.041522434     A.U. after    8 cycles
 E2 =    -0.7637091607D+00 EUMP2 =    -0.23180523159463D+03
 E2 =    -0.7637091607D+00 EUMP2 =    -0.23180523159463D+03
 SCF Done:  E(RHF) =  -231.041510722     A.U. after    8 cycles
 E2 =    -0.7637213197D+00 EUMP2 =    -0.23180523204177D+03
 E2 =    -0.7637213197D+00 EUMP2 =    -0.23180523204177D+03
 SCF Done:  E(RHF) =  -231.041009274     A.U. after   10 cycles
 E2 =    -0.7641722115D+00 EUMP2 =    -0.23180518148524D+03
 E2 =    -0.7641722115D+00 EUMP2 =    -0.23180518148524D+03
 SCF Done:  E(RHF) =  -231.041927579     A.U. after    9 cycles
 E2 =    -0.7632494182D+00 EUMP2 =    -0.23180517699691D+03
 E2 =    -0.7632494182D+00 EUMP2 =    -0.23180517699691D+03
 SCF Done:  E(RHF) =  -231.041106030     A.U. after    8 cycles
 E2 =    -0.7640637679D+00 EUMP2 =    -0.23180516979747D+03
 E2 =    -0.7640637679D+00 EUMP2 =    -0.23180516979747D+03
 SCF Done:  E(RHF) =  -231.041801845     A.U. after    8 cycles
 E2 =    -0.7633640636D+00 EUMP2 =    -0.23180516590858D+03
 E2 =    -0.7633640636D+00 EUMP2 =    -0.23180516590858D+03
 SCF Done:  E(RHF) =  -231.041458830     A.U. after    8 cycles
 E2 =    -0.7637029293D+00 EUMP2 =    -0.23180516175901D+03
 E2 =    -0.7637029293D+00 EUMP2 =    -0.23180516175901D+03
 SCF Done:  E(RHF) =  -231.041438719     A.U. after    8 cycles
 E2 =    -0.7637217076D+00 EUMP2 =    -0.23180516042620D+03
 E2 =    -0.7637217076D+00 EUMP2 =    -0.23180516042620D+03
 SCF Done:  E(RHF) =  -231.041448531     A.U. after    8 cycles
 E2 =    -0.7637122870D+00 EUMP2 =    -0.23180516081795D+03
 E2 =    -0.7637122870D+00 EUMP2 =    -0.23180516081795D+03
 SCF Done:  E(RHF) =  -231.041448531     A.U. after    8 cycles
 E2 =    -0.7637122870D+00 EUMP2 =    -0.23180516081795D+03
 E2 =    -0.7637122870D+00 EUMP2 =    -0.23180516081795D+03

 Alpha  occ. eigenvalues --  -26.30663 -20.64190 -15.58559  -1.60427  -1.26692
 Alpha  occ. eigenvalues --   -1.18836  -0.73731  -0.68277  -0.67504  -0.67157
 Alpha  occ. eigenvalues --   -0.64441  -0.57530  -0.49951  -0.47611
 Alpha virt. eigenvalues --    0.01933   0.04069   0.04375   0.06392   0.12338
 Alpha virt. eigenvalues --    0.12861   0.13769   0.14913   0.14916   0.17499
 Alpha virt. eigenvalues --    0.19633   0.19806   0.20509   0.22963   0.24623

 Mulliken charges:
               1
     1  O   -0.202016
     2  F   -0.188588
     3  H    0.292207
     4  N   -0.328285
     5  H    0.147183
     6  H    0.137346
     7  H    0.142152
 Sum of Mulliken charges =  -0.00000

 Dipole moment (field-independent basis, Debye):
    X=             -4.4987    Y=              0.2851    Z=              0.0073  Tot=              4.5077
 Quadrupole moment (field-independent basis, Debye-Ang):
   XX=            -15.1314   YY=            -17.7109   ZZ=            -17.7338
   XY=             -1.1157   XZ=             -0.0250   YZ=              0.0136

  Exact polarizability:  28.765  -1.260  26.016  -0.069   0.048  20.827
 Approx polarizability:  18.979  -1.008  23.034  -0.053   0.039  16.948

                      1                      2                      3
                     A"                     A'                     A"
 Frequencies --     23.7733                85.2390               246.0128
 Red. masses --      1.1329                 3.5352                 1.1102
 Frc consts  --      0.0004                 0.0151                 0.0396
 IR Inten    --      0.0261                 4.1205                10.6073

                      4                      5                      6
                     A'                     A'                     A"
 Frequencies --    265.5980               366.9501               874.7144
 Red. masses --      3.7972                 1.4097                 1.0498
 Frc consts  --      0.1578                 0.1118                 0.4733
 IR Inten    --     18.8524                30.1574                96.1527

                      7                      8                      9
                     A'                     A'                     A'
 Frequencies --    983.2672              1121.1124              1591.6265
 Red. masses --     16.6334                 1.1930                 1.0701
 Frc consts  --      9.4749                 0.8835                 1.5972
 IR Inten    --      3.9318               152.9933                50.3227

                     10                     11                     12
                     A"                     A'                     A'
 Frequencies --   1669.0734              1670.2572              3250.7914
 Red. masses --      1.0633                 1.0580                 1.0726
 Frc consts  --      1.7453                 1.7391                 6.6785
 IR Inten    --     17.2893                 8.7697              1111.6660

                     13                     14                     15
                     A'                     A'                     A"
 Frequencies --   3500.7606              3640.7328              3646.4619
 Red. masses --      1.0269                 1.0895                 1.0898
 Frc consts  --      7.4146                 8.5085                 8.5374
 IR Inten    --      1.1876                23.5309                22.5150

 - Thermochemistry -
 -------------------
 Temperature   298.150 Kelvin.  Pressure   1.00000 Atm.
 Atom     1 has atomic number  8 and mass  15.99491

 Molecular mass:    53.02769 amu.
 Principal axes and moments of inertia in atomic units:
                           1         2         3
     Eigenvalues --    66.27527 376.03579 432.73879
           X            0.96992   0.24340   0.00000
           Y           -0.24340   0.96992   0.00000
           Z           -0.00000  -0.00000   1.00000
 This molecule is an asymmetric top.
 Rotational symmetry number  1.
 Rotational temperatures (Kelvin)      1.30688     0.23033     0.20015
 Rotational constants (GHZ):          27.23099     4.79939     4.17051
 Zero-point vibrational energy     137190.0 (Joules/Mol)
                                   32.78919 (Kcal/Mol)
 Warning -- explicit consideration of   5 degrees of freedom as
           vibrations may cause significant error
 Vibrational temperatures:     34.20   122.64   353.96   382.14   527.96
          (Kelvin)           1258.52  1414.70  1613.03  2290.00  2401.42
                             2403.13  4677.16  5036.81  5238.20  5246.45

 Zero-point correction=                           0.052253 (Hartree/Particle)
 Thermal correction to Energy=                    0.058170
 Thermal correction to Enthalpy=                  0.059114
 Thermal correction to Gibbs Free Energy=         0.022726
 Sum of electronic and zero-point Energies=           -231.752998
 Sum of electronic and thermal Energies=              -231.747081
 Sum of electronic and thermal Enthalpies=            -231.746137
 Sum of electronic and thermal Free Energies=         -231.782525

                     E (Thermal)             CV                S
                      KCal/Mol        Cal/Mol-Kelvin    Cal/Mol-Kelvin
 Total                   36.502             16.282             76.585
 Electronic               0.000              0.000              0.000
 Translational            0.889              2.981             37.827
 Rotational               0.889              2.981             23.893
 Vibrational             34.725             10.320             14.865
 Vibration     1          0.593              1.985              6.291
 Vibration     2          0.601              1.959              3.766
 Vibration     3          0.660              1.769              1.759
 Vibration     4          0.671              1.736              1.625
 Vibration     5          0.740              1.540              1.093

 ## DEPERTURBED TRANSITIONS MOMENTS ##

 Electric dipole : Fundamental Bands
 ------------------------------------------------------------------------

 ## AFTER VARIATIONAL CORRECTION

 Electric dipole : Fundamental Bands
 ------------------------------------------------------------------------

 Optimization completed.
    -- Stationary point found.
 Normal termination of Gaussian 16 at Fri Jul  1 19:11:15 2022.
