 Gaussian 16, Revision A.03,
 Gaussian 16:  ES64L-G16RevA.03 25-Dec-2016

 ----------------------------------------------
 # mp2/aug-cc-pVTZ opt freq=(vibrot,anharmonic)
 ----------------------------------------------

 ----
 bleh
 ----
 Symbolic Z-matrix:
 Charge =  0 Multiplicity = 1

 SCF Done:  E(RHF) =  -207.063667698     A.U. after   12 cycles
 E2 =    -0.7577296164D+00 EUMP2 =    -0.20782139731410D+03
 SCF Done:  E(RHF) =  -207.065266304     A.U. after   13 cycles
 E2 =    -0.7571954977D+00 EUMP2 =    -0.20782246180131D+03
 SCF Done:  E(RHF) =  -207.067092355     A.U. after   13 cycles
 E2 =    -0.7554312286D+00 EUMP2 =    -0.20782252358368D+03
 SCF Done:  E(RHF) =  -207.067503644     A.U. after   12 cycles
 E2 =    -0.7554164658D+00 EUMP2 =    -0.20782292010934D+03
 SCF Done:  E(RHF) =  -207.067704586     A.U. after   12 cycles
 E2 =    -0.7548770407D+00 EUMP2 =    -0.20782258162667D+03
 SCF Done:  E(RHF) =  -207.067865208     A.U. after   11 cycles
 E2 =    -0.7551998128D+00 EUMP2 =    -0.20782306502082D+03
 SCF Done:  E(RHF) =  -207.067858920     A.U. after   11 cycles
 E2 =    -0.7552337721D+00 EUMP2 =    -0.20782309269227D+03
 SCF Done:  E(RHF) =  -207.067847509     A.U. after   11 cycles
 E2 =    -0.7552671665D+00 EUMP2 =    -0.20782311467515D+03
 SCF Done:  E(RHF) =  -207.067754888     A.U. after   11 cycles
 E2 =    -0.7553744036D+00 EUMP2 =    -0.20782312929186D+03
 SCF Done:  E(RHF) =  -207.067712453     A.U. after   10 cycles
 E2 =    -0.7554229460D+00 EUMP2 =    -0.20782313539875D+03
 E2 =    -0.7554740114D+00 EUMP2 =    -0.20782314241824D+03
 E2 =    -0.7555351572D+00 EUMP2 =    -0.20782315027394D+03
 E2 =    -0.7555648089D+00 EUMP2 =    -0.20782315476439D+03
 E2 =    -0.7555699240D+00 EUMP2 =    -0.20782315589807D+03
 E2 =    -0.7555602882D+00 EUMP2 =    -0.20782315630131D+03
 E2 =    -0.7555447205D+00 EUMP2 =    -0.20782315640514D+03
 Optimization completed.
    -- Stationary point found.
 Normal termination of Gaussian 16 at Tue Dec  7 15:51:35 2021.

 ----------------------------------------------------------------------
 #N Geom=AllCheck Guess=TCheck SCRF=Check GenChk RMP2(FC)/Aug-CC-pVTZ F
 req
 ----------------------------------------------------------------------

 Structure from the checkpoint file:  "/gscratch/scrubbed/gds001/Gau-26914.chk"
 ----
 bleh
 ----
 Charge =  0 Multiplicity = 1

                         Standard orientation:
 ---------------------------------------------------------------------
 Center     Atomic      Atomic             Coordinates (Angstroms)
 Number     Number       Type             X           Y           Z
 ---------------------------------------------------------------------
      1          8           0       -1.295732   -0.603076   -0.106315
      2          8           0       -0.859791    0.783492    0.002284
      3          1           0       -1.791522   -0.677793    0.719282
      4          1           0        0.112451    0.626615    0.064702
      5          7           0        1.802836   -0.074052    0.018791
      6          1           0        2.392284    0.259118   -0.733598
      7          1           0        2.371669   -0.106156    0.855192
      8          1           0        1.539450   -1.026742   -0.204871
 ---------------------------------------------------------------------

 E2 =    -0.7555447194D+00 EUMP2 =    -0.20782315640400D+03
 E2 =    -0.7555447194D+00 EUMP2 =    -0.20782315640400D+03
 E2 =    -0.7555478506D+00 EUMP2 =    -0.20782315635628D+03
 E2 =    -0.7555478506D+00 EUMP2 =    -0.20782315635628D+03
 SCF Done:  E(RHF) =  -207.068085910     A.U. after    9 cycles
 E2 =    -0.7549905983D+00 EUMP2 =    -0.20782307650787D+03
 E2 =    -0.7549905983D+00 EUMP2 =    -0.20782307650787D+03
 SCF Done:  E(RHF) =  -207.066981443     A.U. after    9 cycles
 E2 =    -0.7560993488D+00 EUMP2 =    -0.20782308079165D+03
 E2 =    -0.7560993488D+00 EUMP2 =    -0.20782308079165D+03
 SCF Done:  E(RHF) =  -207.067853110     A.U. after    8 cycles
 E2 =    -0.7552195069D+00 EUMP2 =    -0.20782307261723D+03
 E2 =    -0.7552195069D+00 EUMP2 =    -0.20782307261723D+03
 SCF Done:  E(RHF) =  -207.067200892     A.U. after    8 cycles
 E2 =    -0.7558737444D+00 EUMP2 =    -0.20782307463614D+03
 E2 =    -0.7558737444D+00 EUMP2 =    -0.20782307463614D+03
 SCF Done:  E(RHF) =  -207.067502145     A.U. after    8 cycles
 E2 =    -0.7555640915D+00 EUMP2 =    -0.20782306623603D+03
 E2 =    -0.7555640915D+00 EUMP2 =    -0.20782306623603D+03
 SCF Done:  E(RHF) =  -207.067541446     A.U. after    8 cycles
 E2 =    -0.7555259908D+00 EUMP2 =    -0.20782306743703D+03
 E2 =    -0.7555259908D+00 EUMP2 =    -0.20782306743703D+03
 SCF Done:  E(RHF) =  -207.067524218     A.U. after    8 cycles
 E2 =    -0.7555419118D+00 EUMP2 =    -0.20782306612989D+03
 E2 =    -0.7555419118D+00 EUMP2 =    -0.20782306612989D+03
 SCF Done:  E(RHF) =  -207.067518607     A.U. after    8 cycles
 E2 =    -0.7555480067D+00 EUMP2 =    -0.20782306661371D+03
 E2 =    -0.7555480067D+00 EUMP2 =    -0.20782306661371D+03
 SCF Done:  E(RHF) =  -207.068015911     A.U. after    9 cycles
 E2 =    -0.7550410356D+00 EUMP2 =    -0.20782305694646D+03
 E2 =    -0.7550410356D+00 EUMP2 =    -0.20782305694646D+03
 SCF Done:  E(RHF) =  -207.067010485     A.U. after    9 cycles
 E2 =    -0.7560506186D+00 EUMP2 =    -0.20782306110393D+03
 E2 =    -0.7560506186D+00 EUMP2 =    -0.20782306110393D+03

 Alpha  occ. eigenvalues --  -20.60491 -20.58954 -15.56960  -1.43823  -1.18182
 Alpha  occ. eigenvalues --   -1.16851  -0.68793  -0.67689  -0.65911  -0.65374
 Alpha  occ. eigenvalues --   -0.57515  -0.49845  -0.46186  -0.44550
 Alpha virt. eigenvalues --    0.02351   0.04094   0.04557   0.05277   0.07094
 Alpha virt. eigenvalues --    0.12911   0.13735   0.14152   0.14672   0.16193
 Alpha virt. eigenvalues --    0.17053   0.18646   0.18914   0.20116   0.20965

 Mulliken charges:
               1
     1  O   -0.280511
     2  O   -0.344638
     3  H    0.250960
     4  H    0.289382
     5  N   -0.366673
     6  H    0.151715
     7  H    0.151341
     8  H    0.148425
 Sum of Mulliken charges =  -0.00000

 Dipole moment (field-independent basis, Debye):
    X=              2.9605    Y=             -1.3685    Z=              1.2608  Tot=              3.4967
 Quadrupole moment (field-independent basis, Debye-Ang):
   XX=            -13.7921   YY=            -20.2573   ZZ=            -18.1691
   XY=              1.6629   XZ=             -2.8759   YZ=             -1.1843

  Exact polarizability:  33.145   0.748  29.399  -0.729  -0.186  25.027
 Approx polarizability:  22.341   1.829  25.106  -0.543   0.076  20.650

                      1                      2                      3
                      A                      A                      A
 Frequencies --     63.7812                75.9662               209.7380
 Red. masses --      1.1205                 2.6505                 1.1111
 Frc consts  --      0.0027                 0.0090                 0.0288
 IR Inten    --      2.2720                10.8778                37.3534

                      4                      5                      6
                      A                      A                      A
 Frequencies --    244.0231               263.1851               351.5640
 Red. masses --      3.2040                 1.1343                 1.5254
 Frc consts  --      0.1124                 0.0463                 0.1111
 IR Inten    --      9.7343                99.5596                25.2770

                      7                      8                      9
                      A                      A                      A
 Frequencies --    842.2727               925.2325              1097.0504
 Red. masses --      1.0882                 9.6512                 1.1903
 Frc consts  --      0.4549                 4.8678                 0.8440
 IR Inten    --     91.2708                 5.1452               162.1329

                     10                     11                     12
                      A                      A                      A
 Frequencies --   1335.4570              1554.2466              1667.4896
 Red. masses --      1.1008                 1.0712                 1.0602
 Frc consts  --      1.1567                 1.5246                 1.7368
 IR Inten    --     73.5755                24.2220                13.1389

                     13                     14                     15
                      A                      A                      A
 Frequencies --   1670.2930              3391.5478              3499.9068
 Red. masses --      1.0644                 1.0706                 1.0269
 Frc consts  --      1.7496                 7.2556                 7.4110
 IR Inten    --     15.1446               850.1779                 8.8183

                     16                     17                     18
                      A                      A                      A
 Frequencies --   3640.5381              3649.9700              3795.5312
 Red. masses --      1.0896                 1.0898                 1.0685
 Frc consts  --      8.5085                 8.5541                 9.0689
 IR Inten    --     22.0322                18.6224                34.2981

 - Thermochemistry -
 -------------------
 Temperature   298.150 Kelvin.  Pressure   1.00000 Atm.
 Atom     1 has atomic number  8 and mass  15.99491

 Molecular mass:    51.03203 amu.
 Principal axes and moments of inertia in atomic units:
                           1         2         3
     Eigenvalues --    70.36580 367.32125 423.47166
           X            0.99992  -0.00062  -0.01264
           Y            0.00019   0.99944  -0.03343
           Z            0.01265   0.03343   0.99936
 This molecule is an asymmetric top.
 Rotational symmetry number  1.
 Rotational temperatures (Kelvin)      1.23091     0.23580     0.20453
 Rotational constants (GHZ):          25.64799     4.91325     4.26178
 Zero-point vibrational energy     169138.8 (Joules/Mol)
                                   40.42514 (Kcal/Mol)
 Warning -- explicit consideration of   6 degrees of freedom as
           vibrations may cause significant error
 Vibrational temperatures:     91.77   109.30   301.77   351.09   378.66
          (Kelvin)            505.82  1211.84  1331.20  1578.41  1921.42
                             2236.21  2399.15  2403.18  4879.68  5035.59
                             5237.92  5251.49  5460.92

 Zero-point correction=                           0.064422 (Hartree/Particle)
 Thermal correction to Energy=                    0.070870
 Thermal correction to Enthalpy=                  0.071814
 Thermal correction to Gibbs Free Energy=         0.035240
 Sum of electronic and zero-point Energies=           -207.758735
 Sum of electronic and thermal Energies=              -207.752286
 Sum of electronic and thermal Enthalpies=            -207.751342
 Sum of electronic and thermal Free Energies=         -207.787917

                     E (Thermal)             CV                S
                      KCal/Mol        Cal/Mol-Kelvin    Cal/Mol-Kelvin
 Total                   44.472             18.417             76.978
 Electronic               0.000              0.000              0.000
 Translational            0.889              2.981             37.713
 Rotational               0.889              2.981             23.908
 Vibrational             42.694             12.456             15.357
 Vibration     1          0.597              1.972              4.337
 Vibration     2          0.599              1.965              3.992
 Vibration     3          0.642              1.826              2.046
 Vibration     4          0.659              1.773              1.773
 Vibration     5          0.670              1.740              1.641
 Vibration     6          0.728              1.572              1.159

 ## DEPERTURBED TRANSITIONS MOMENTS ##

 Electric dipole : Fundamental Bands
 ------------------------------------------------------------------------

 ## AFTER VARIATIONAL CORRECTION

 Electric dipole : Fundamental Bands
 ------------------------------------------------------------------------

                           ! Non-Optimized Parameters !
 Normal termination of Gaussian 16 at Tue Dec  7 22:22:48 2021.
