 Gaussian 16, Revision A.03,
 Gaussian 16:  ES64L-G16RevA.03 25-Dec-2016

 ----------------------------------------------
 # mp2/aug-cc-pVDZ opt freq=(vibrot,anharmonic)
 ----------------------------------------------

 ----
 bleh
 ----
 Symbolic Z-matrix:
 Charge =  0 Multiplicity = 1

 SCF Done:  E(RHF) =  -207.012423902     A.U. after   13 cycles
 E2 =    -0.6240819474D+00 EUMP2 =    -0.20763650584954D+03
 SCF Done:  E(RHF) =  -207.013013150     A.U. after   14 cycles
 E2 =    -0.6244940505D+00 EUMP2 =    -0.20763750720093D+03
 SCF Done:  E(RHF) =  -207.012650913     A.U. after   14 cycles
 E2 =    -0.6247143298D+00 EUMP2 =    -0.20763736524229D+03
 SCF Done:  E(RHF) =  -207.013382434     A.U. after   13 cycles
 E2 =    -0.6244917812D+00 EUMP2 =    -0.20763787421517D+03
 SCF Done:  E(RHF) =  -207.013134767     A.U. after   13 cycles
 E2 =    -0.6243645252D+00 EUMP2 =    -0.20763749929186D+03
 SCF Done:  E(RHF) =  -207.013846746     A.U. after   12 cycles
 E2 =    -0.6241443277D+00 EUMP2 =    -0.20763799107331D+03
 SCF Done:  E(RHF) =  -207.013950437     A.U. after   12 cycles
 E2 =    -0.6240663068D+00 EUMP2 =    -0.20763801674376D+03
 SCF Done:  E(RHF) =  -207.014072691     A.U. after   12 cycles
 E2 =    -0.6239640436D+00 EUMP2 =    -0.20763803673452D+03
 SCF Done:  E(RHF) =  -207.014074951     A.U. after   12 cycles
 E2 =    -0.6239738677D+00 EUMP2 =    -0.20763804881865D+03
 SCF Done:  E(RHF) =  -207.014008459     A.U. after   10 cycles
 E2 =    -0.6240431999D+00 EUMP2 =    -0.20763805165870D+03
 E2 =    -0.6241665725D+00 EUMP2 =    -0.20763805449315D+03
 E2 =    -0.6242684000D+00 EUMP2 =    -0.20763805662162D+03
 E2 =    -0.6242931409D+00 EUMP2 =    -0.20763805774417D+03
 E2 =    -0.6242734550D+00 EUMP2 =    -0.20763805899307D+03
 E2 =    -0.6242208139D+00 EUMP2 =    -0.20763805991162D+03
 E2 =    -0.6241922735D+00 EUMP2 =    -0.20763806022101D+03
 Optimization completed.
    -- Stationary point found.
 Normal termination of Gaussian 16 at Tue Dec  7 15:33:25 2021.

 ----------------------------------------------------------------------
 #N Geom=AllCheck Guess=TCheck SCRF=Check GenChk RMP2(FC)/Aug-CC-pVDZ F
 req
 ----------------------------------------------------------------------

 Structure from the checkpoint file:  "/gscratch/scrubbed/gds001/Gau-30468.chk"
 ----
 bleh
 ----
 Charge =  0 Multiplicity = 1

                         Standard orientation:
 ---------------------------------------------------------------------
 Center     Atomic      Atomic             Coordinates (Angstroms)
 Number     Number       Type             X           Y           Z
 ---------------------------------------------------------------------
      1          8           0       -1.334876   -0.599655   -0.105864
      2          8           0       -0.850391    0.787901    0.000539
      3          1           0       -1.824443   -0.654051    0.730647
      4          1           0        0.120106    0.595630    0.055825
      5          7           0        1.823348   -0.082012    0.018019
      6          1           0        2.411294    0.260201   -0.741522
      7          1           0        2.396700   -0.074334    0.860946
      8          1           0        1.615050   -1.059328   -0.189427
 ---------------------------------------------------------------------

 E2 =    -0.6241922730D+00 EUMP2 =    -0.20763806022059D+03
 E2 =    -0.6241922730D+00 EUMP2 =    -0.20763806022059D+03
 E2 =    -0.6241943486D+00 EUMP2 =    -0.20763806013903D+03
 E2 =    -0.6241943486D+00 EUMP2 =    -0.20763806013903D+03
 SCF Done:  E(RHF) =  -207.014362611     A.U. after   10 cycles
 E2 =    -0.6236181473D+00 EUMP2 =    -0.20763798075847D+03
 E2 =    -0.6236181473D+00 EUMP2 =    -0.20763798075847D+03
 SCF Done:  E(RHF) =  -207.013218778     A.U. after   10 cycles
 E2 =    -0.6247667979D+00 EUMP2 =    -0.20763798557639D+03
 E2 =    -0.6247667979D+00 EUMP2 =    -0.20763798557639D+03
 SCF Done:  E(RHF) =  -207.014198079     A.U. after    9 cycles
 E2 =    -0.6237789473D+00 EUMP2 =    -0.20763797702625D+03
 E2 =    -0.6237789473D+00 EUMP2 =    -0.20763797702625D+03
 SCF Done:  E(RHF) =  -207.013371780     A.U. after    9 cycles
 E2 =    -0.6246079471D+00 EUMP2 =    -0.20763797972673D+03
 E2 =    -0.6246079471D+00 EUMP2 =    -0.20763797972673D+03
 SCF Done:  E(RHF) =  -207.013760042     A.U. after    8 cycles
 E2 =    -0.6242105971D+00 EUMP2 =    -0.20763797063889D+03
 E2 =    -0.6242105971D+00 EUMP2 =    -0.20763797063889D+03
 SCF Done:  E(RHF) =  -207.013798753     A.U. after    9 cycles
 E2 =    -0.6241730088D+00 EUMP2 =    -0.20763797176204D+03
 E2 =    -0.6241730088D+00 EUMP2 =    -0.20763797176204D+03
 SCF Done:  E(RHF) =  -207.013782912     A.U. after    8 cycles
 E2 =    -0.6241875258D+00 EUMP2 =    -0.20763797043809D+03
 E2 =    -0.6241875258D+00 EUMP2 =    -0.20763797043809D+03
 SCF Done:  E(RHF) =  -207.013775211     A.U. after    9 cycles
 E2 =    -0.6241959379D+00 EUMP2 =    -0.20763797114862D+03
 E2 =    -0.6241959379D+00 EUMP2 =    -0.20763797114862D+03
 SCF Done:  E(RHF) =  -207.014309286     A.U. after   11 cycles
 E2 =    -0.6236524682D+00 EUMP2 =    -0.20763796175454D+03
 E2 =    -0.6236524682D+00 EUMP2 =    -0.20763796175454D+03
 SCF Done:  E(RHF) =  -207.013231497     A.U. after   10 cycles
 E2 =    -0.6247345053D+00 EUMP2 =    -0.20763796600199D+03
 E2 =    -0.6247345053D+00 EUMP2 =    -0.20763796600199D+03

 Alpha  occ. eigenvalues --  -20.61436 -20.59984 -15.58279  -1.43420  -1.18512
 Alpha  occ. eigenvalues --   -1.16951  -0.68413  -0.67312  -0.65582  -0.65172
 Alpha  occ. eigenvalues --   -0.57099  -0.49863  -0.46326  -0.44684
 Alpha virt. eigenvalues --    0.02857   0.05000   0.05529   0.06332   0.08516
 Alpha virt. eigenvalues --    0.15758   0.17034   0.18149   0.18423   0.20320
 Alpha virt. eigenvalues --    0.21061   0.23631   0.24242   0.25164   0.25866

 Mulliken charges:
               1
     1  O   -0.245327
     2  O   -0.293704
     3  H    0.205069
     4  H    0.372170
     5  N   -0.162626
     6  H    0.037544
     7  H    0.045163
     8  H    0.041711
 Sum of Mulliken charges =  -0.00000

 Dipole moment (field-independent basis, Debye):
    X=              3.0725    Y=             -1.3623    Z=              1.2946  Tot=              3.6017
 Quadrupole moment (field-independent basis, Debye-Ang):
   XX=            -13.8057   YY=            -20.4230   ZZ=            -18.4218
   XY=              1.6164   XZ=             -2.9686   YZ=             -1.1091

  Exact polarizability:  33.383   0.900  29.103  -0.770  -0.180  24.896
 Approx polarizability:  22.510   2.054  25.197  -0.563   0.112  20.671

                      1                      2                      3
                      A                      A                      A
 Frequencies --     48.8467                70.7013               209.1060
 Red. masses --      1.1026                 2.7984                 1.1043
 Frc consts  --      0.0015                 0.0082                 0.0284
 IR Inten    --      1.1493                10.2668                39.4325

                      4                      5                      6
                      A                      A                      A
 Frequencies --    243.2450               266.3413               345.9381
 Red. masses --      3.4171                 1.1204                 1.5242
 Frc consts  --      0.1191                 0.0468                 0.1075
 IR Inten    --     11.1937                93.3376                25.6554

                      7                      8                      9
                      A                      A                      A
 Frequencies --    844.0903               886.5932              1109.5311
 Red. masses --      1.2313                 4.7800                 1.1878
 Frc consts  --      0.5169                 2.2138                 0.8616
 IR Inten    --     81.7060                16.7311               152.2254

                     10                     11                     12
                      A                      A                      A
 Frequencies --   1327.6391              1549.6169              1646.9009
 Red. masses --      1.0991                 1.0699                 1.0580
 Frc consts  --      1.1414                 1.5137                 1.6908
 IR Inten    --     73.2961                24.6438                10.8402

                     13                     14                     15
                      A                      A                      A
 Frequencies --   1649.0641              3376.1791              3480.1151
 Red. masses --      1.0631                 1.0705                 1.0277
 Frc consts  --      1.7033                 7.1895                 7.3334
 IR Inten    --     14.8137               867.6231                 7.2326

                     16                     17                     18
                      A                      A                      A
 Frequencies --   3629.3809              3637.6461              3775.2259
 Red. masses --      1.0892                 1.0893                 1.0684
 Frc consts  --      8.4531                 8.4924                 8.9720
 IR Inten    --     16.0581                13.7282                29.6863

 - Thermochemistry -
 -------------------
 Temperature   298.150 Kelvin.  Pressure   1.00000 Atm.
 Atom     1 has atomic number  8 and mass  15.99491

 Molecular mass:    51.03203 amu.
 Principal axes and moments of inertia in atomic units:
                           1         2         3
     Eigenvalues --    70.66476 378.10206 434.34050
           X            0.99992  -0.00141  -0.01254
           Y            0.00100   0.99948  -0.03230
           Z            0.01258   0.03229   0.99940
 This molecule is an asymmetric top.
 Rotational symmetry number  1.
 Rotational temperatures (Kelvin)      1.22570     0.22908     0.19941
 Rotational constants (GHZ):          25.53948     4.77316     4.15513
 Zero-point vibrational energy     168052.4 (Joules/Mol)
                                   40.16548 (Kcal/Mol)
 Warning -- explicit consideration of   6 degrees of freedom as
           vibrations may cause significant error
 Vibrational temperatures:     70.28   101.72   300.86   349.98   383.21
          (Kelvin)            497.73  1214.46  1275.61  1596.37  1910.18
                             2229.55  2369.52  2372.64  4857.57  5007.11
                             5221.87  5233.76  5431.71

 Zero-point correction=                           0.064008 (Hartree/Particle)
 Thermal correction to Energy=                    0.070509
 Thermal correction to Enthalpy=                  0.071453
 Thermal correction to Gibbs Free Energy=         0.034517
 Sum of electronic and zero-point Energies=           -207.574052
 Sum of electronic and thermal Energies=              -207.567551
 Sum of electronic and thermal Enthalpies=            -207.566607
 Sum of electronic and thermal Free Energies=         -207.603543

                     E (Thermal)             CV                S
                      KCal/Mol        Cal/Mol-Kelvin    Cal/Mol-Kelvin
 Total                   44.245             18.485             77.739
 Electronic               0.000              0.000              0.000
 Translational            0.889              2.981             37.713
 Rotational               0.889              2.981             23.966
 Vibrational             42.468             12.523             16.060
 Vibration     1          0.595              1.978              4.864
 Vibration     2          0.598              1.968              4.134
 Vibration     3          0.642              1.827              2.051
 Vibration     4          0.659              1.774              1.779
 Vibration     5          0.672              1.735              1.620
 Vibration     6          0.724              1.584              1.185

 ## DEPERTURBED TRANSITIONS MOMENTS ##

 Electric dipole : Fundamental Bands
 ------------------------------------------------------------------------

 ## AFTER VARIATIONAL CORRECTION

 Electric dipole : Fundamental Bands
 ------------------------------------------------------------------------

                           ! Non-Optimized Parameters !
 Normal termination of Gaussian 16 at Tue Dec  7 16:01:25 2021.
