 Gaussian 16, Revision A.03,
 Gaussian 16:  ES64L-G16RevA.03 25-Dec-2016

 ----------------------------------------------
 # mp2/aug-cc-pVTZ opt freq=(vibrot,anharmonic)
 ----------------------------------------------

 ----
 bleh
 ----
 Symbolic Z-matrix:
 Charge =  0 Multiplicity = 1

 SCF Done:  E(RHF) =  -226.900684215     A.U. after   12 cycles
 E2 =    -0.7844210889D+00 EUMP2 =    -0.22768510530379D+03
 SCF Done:  E(RHF) =  -226.902994203     A.U. after   13 cycles
 E2 =    -0.7833998621D+00 EUMP2 =    -0.22768639406487D+03
 SCF Done:  E(RHF) =  -226.905667018     A.U. after   12 cycles
 E2 =    -0.7810253293D+00 EUMP2 =    -0.22768669234759D+03
 SCF Done:  E(RHF) =  -226.906007103     A.U. after   13 cycles
 E2 =    -0.7809830987D+00 EUMP2 =    -0.22768699020135D+03
 SCF Done:  E(RHF) =  -226.906340041     A.U. after   11 cycles
 E2 =    -0.7807998720D+00 EUMP2 =    -0.22768713991269D+03
 SCF Done:  E(RHF) =  -226.906753219     A.U. after   12 cycles
 E2 =    -0.7804128958D+00 EUMP2 =    -0.22768716611436D+03
 SCF Done:  E(RHF) =  -226.906322022     A.U. after   12 cycles
 E2 =    -0.7810193755D+00 EUMP2 =    -0.22768734139765D+03
 SCF Done:  E(RHF) =  -226.906302936     A.U. after   11 cycles
 E2 =    -0.7811285454D+00 EUMP2 =    -0.22768743148132D+03
 SCF Done:  E(RHF) =  -226.905542169     A.U. after   13 cycles
 E2 =    -0.7821309660D+00 EUMP2 =    -0.22768767313534D+03
 SCF Done:  E(RHF) =  -226.905804556     A.U. after   11 cycles
 E2 =    -0.7820721000D+00 EUMP2 =    -0.22768787665600D+03
 E2 =    -0.7821931862D+00 EUMP2 =    -0.22768849744756D+03
 E2 =    -0.7840778443D+00 EUMP2 =    -0.22768780000797D+03
 E2 =    -0.7831763177D+00 EUMP2 =    -0.22768801988706D+03
 E2 =    -0.7824824324D+00 EUMP2 =    -0.22768861893793D+03
 E2 =    -0.7824886938D+00 EUMP2 =    -0.22768870225665D+03
 E2 =    -0.7828393290D+00 EUMP2 =    -0.22768873606678D+03
 E2 =    -0.7827626832D+00 EUMP2 =    -0.22768876238065D+03
 E2 =    -0.7828251586D+00 EUMP2 =    -0.22768878385369D+03
 E2 =    -0.7831499314D+00 EUMP2 =    -0.22768884872423D+03
 E2 =    -0.7832663854D+00 EUMP2 =    -0.22768889513972D+03
 Optimization completed.
    -- Stationary point found.
 Normal termination of Gaussian 16 at Tue Dec  7 15:50:19 2021.

 ----------------------------------------------------------------------
 #N Geom=AllCheck Guess=TCheck SCRF=Check GenChk RMP2(FC)/Aug-CC-pVTZ F
 req
 ----------------------------------------------------------------------

 Structure from the checkpoint file:  "/gscratch/scrubbed/gds001/Gau-12558.chk"
 ----
 bleh
 ----
 Charge =  0 Multiplicity = 1

                         Standard orientation:
 ---------------------------------------------------------------------
 Center     Atomic      Atomic             Coordinates (Angstroms)
 Number     Number       Type             X           Y           Z
 ---------------------------------------------------------------------
      1          8           0       -1.016477   -0.676402   -0.110875
      2          8           0       -0.954126    0.774798   -0.015269
      3          1           0       -1.472268   -0.873900    0.718682
      4          1           0        0.011684    0.875059    0.086308
      5          8           0        1.713868   -0.011469    0.115976
      6          1           0        2.356082    0.067615   -0.595278
      7          1           0        1.158383   -0.764193   -0.128371
 ---------------------------------------------------------------------

 SCF Done:  E(RHF) =  -226.905757386     A.U. after    9 cycles
 E2 =    -0.7831578049D+00 EUMP2 =    -0.22768891519123D+03
 E2 =    -0.7831578049D+00 EUMP2 =    -0.22768891519123D+03
 SCF Done:  E(RHF) =  -226.905890320     A.U. after    9 cycles
 E2 =    -0.7830249657D+00 EUMP2 =    -0.22768891528537D+03
 E2 =    -0.7830249657D+00 EUMP2 =    -0.22768891528537D+03
 SCF Done:  E(RHF) =  -226.906333352     A.U. after    9 cycles
 E2 =    -0.7825093558D+00 EUMP2 =    -0.22768884270791D+03
 E2 =    -0.7825093558D+00 EUMP2 =    -0.22768884270791D+03
 SCF Done:  E(RHF) =  -226.905180070     A.U. after    9 cycles
 E2 =    -0.7836668665D+00 EUMP2 =    -0.22768884693673D+03
 E2 =    -0.7836668665D+00 EUMP2 =    -0.22768884693673D+03
 SCF Done:  E(RHF) =  -226.906307648     A.U. after    8 cycles
 E2 =    -0.7825278791D+00 EUMP2 =    -0.22768883552730D+03
 E2 =    -0.7825278791D+00 EUMP2 =    -0.22768883552730D+03
 SCF Done:  E(RHF) =  -226.905189693     A.U. after    8 cycles
 E2 =    -0.7836493315D+00 EUMP2 =    -0.22768883902431D+03
 E2 =    -0.7836493315D+00 EUMP2 =    -0.22768883902431D+03
 SCF Done:  E(RHF) =  -226.906189073     A.U. after    9 cycles
 E2 =    -0.7826448086D+00 EUMP2 =    -0.22768883388124D+03
 E2 =    -0.7826448086D+00 EUMP2 =    -0.22768883388124D+03
 SCF Done:  E(RHF) =  -226.905307170     A.U. after    9 cycles
 E2 =    -0.7835312949D+00 EUMP2 =    -0.22768883846522D+03
 E2 =    -0.7835312949D+00 EUMP2 =    -0.22768883846522D+03
 SCF Done:  E(RHF) =  -226.905562873     A.U. after    8 cycles
 E2 =    -0.7832681872D+00 EUMP2 =    -0.22768883105983D+03
 E2 =    -0.7832681872D+00 EUMP2 =    -0.22768883105983D+03
 SCF Done:  E(RHF) =  -226.905923030     A.U. after    8 cycles
 E2 =    -0.7829050538D+00 EUMP2 =    -0.22768882808374D+03
 E2 =    -0.7829050538D+00 EUMP2 =    -0.22768882808374D+03

 Alpha  occ. eigenvalues --  -20.63010 -20.61988 -20.58257  -1.46907  -1.37013
 Alpha  occ. eigenvalues --   -1.20741  -0.74819  -0.70854  -0.69507  -0.60513
 Alpha  occ. eigenvalues --   -0.60210  -0.53331  -0.50996  -0.48132
 Alpha virt. eigenvalues --    0.02823   0.03949   0.05316   0.06962   0.11228
 Alpha virt. eigenvalues --    0.13570   0.14373   0.16046   0.16698   0.18019
 Alpha virt. eigenvalues --    0.19013   0.19687   0.20347   0.21909   0.22930

 Mulliken charges:
               1
     1  O   -0.263323
     2  O   -0.324011
     3  H    0.248610
     4  H    0.318920
     5  O   -0.435759
     6  H    0.192327
     7  H    0.263236
 Sum of Mulliken charges =  -0.00000

 Dipole moment (field-independent basis, Debye):
    X=              1.2535    Y=             -1.2323    Z=              0.0377  Tot=              1.7582
 Quadrupole moment (field-independent basis, Debye-Ang):
   XX=            -16.9237   YY=            -17.9276   ZZ=            -18.4667
   XY=              1.9900   XZ=             -5.9120   YZ=             -1.0945

  Exact polarizability:  26.089   0.778  26.131  -0.826  -0.341  21.092
 Approx polarizability:  18.053   1.239  22.341  -0.962   0.133  16.889

                      1                      2                      3
                      A                      A                      A
 Frequencies --    144.9454               190.3650               202.8413
 Red. masses --      2.8151                 1.0470                 6.0158
 Frc consts  --      0.0348                 0.0224                 0.1458
 IR Inten    --     12.1430               174.5269                10.4937

                      4                      5                      6
                      A                      A                      A
 Frequencies --    244.4699               317.3667               489.2144
 Red. masses --      1.2385                 1.1821                 1.1604
 Frc consts  --      0.0436                 0.0701                 0.1636
 IR Inten    --    101.2508                25.6488               101.2914

                      7                      8                      9
                      A                      A                      A
 Frequencies --    645.9165               923.9333              1337.2621
 Red. masses --      1.0603                13.7909                 1.1013
 Frc consts  --      0.2606                 6.9363                 1.1603
 IR Inten    --    172.6769                 1.4179                91.0158

                     10                     11                     12
                      A                      A                      A
 Frequencies --   1504.1149              1625.2256              3613.5011
 Red. masses --      1.0764                 1.0790                 1.0683
 Frc consts  --      1.4348                 1.6791                 8.2188
 IR Inten    --     42.3811                69.2306               267.6609

                     13                     14                     15
                      A                      A                      A
 Frequencies --   3765.0657              3786.4193              3913.5003
 Red. masses --      1.0489                 1.0681                 1.0782
 Frc consts  --      8.7602                 9.0227                 9.7296
 IR Inten    --     72.9255                42.7232               116.8092

 - Thermochemistry -
 -------------------
 Temperature   298.150 Kelvin.  Pressure   1.00000 Atm.
 Atom     1 has atomic number  8 and mass  15.99491

 Molecular mass:    52.01604 amu.
 Principal axes and moments of inertia in atomic units:
                           1         2         3
     Eigenvalues --    72.43153 315.78411 379.46642
           X            0.99952   0.00683  -0.03022
           Y           -0.00769   0.99957  -0.02847
           Z            0.03002   0.02869   0.99914
 This molecule is an asymmetric top.
 Rotational symmetry number  1.
 Rotational temperatures (Kelvin)      1.19580     0.27428     0.22825
 Rotational constants (GHZ):          24.91651     5.71511     4.75600
 Zero-point vibrational energy     135800.9 (Joules/Mol)
                                   32.45720 (Kcal/Mol)
 Warning -- explicit consideration of   6 degrees of freedom as
           vibrations may cause significant error
 Vibrational temperatures:    208.54   273.89   291.84   351.74   456.62
          (Kelvin)            703.87   929.33  1329.33  1924.02  2164.09
                             2338.34  5199.02  5417.09  5447.81  5630.65

 Zero-point correction=                           0.051724 (Hartree/Particle)
 Thermal correction to Energy=                    0.057669
 Thermal correction to Enthalpy=                  0.058613
 Thermal correction to Gibbs Free Energy=         0.024004
 Sum of electronic and zero-point Energies=           -227.637209
 Sum of electronic and thermal Energies=              -227.631264
 Sum of electronic and thermal Enthalpies=            -227.630320
 Sum of electronic and thermal Free Energies=         -227.664929

                     E (Thermal)             CV                S
                      KCal/Mol        Cal/Mol-Kelvin    Cal/Mol-Kelvin
 Total                   36.188             17.902             72.841
 Electronic               0.000              0.000              0.000
 Translational            0.889              2.981             37.770
 Rotational               0.889              2.981             23.677
 Vibrational             34.411             11.940             11.394
 Vibration     1          0.616              1.908              2.738
 Vibration     2          0.634              1.853              2.224
 Vibration     3          0.639              1.836              2.107
 Vibration     4          0.660              1.772              1.770
 Vibration     5          0.704              1.640              1.324
 Vibration     6          0.845              1.274              0.686

 ## DEPERTURBED TRANSITIONS MOMENTS ##

 Electric dipole : Fundamental Bands
 ------------------------------------------------------------------------

 ## AFTER VARIATIONAL CORRECTION

 Electric dipole : Fundamental Bands
 ------------------------------------------------------------------------

 Optimization completed.
    -- Stationary point found.
 Normal termination of Gaussian 16 at Tue Dec  7 19:42:38 2021.
