 Gaussian 16, Revision A.03,
 Gaussian 16:  ES64L-G16RevA.03 25-Dec-2016

 ----------------------------------------------
 # mp2/aug-cc-pVDZ opt freq=(vibrot,anharmonic)
 ----------------------------------------------

 ----
 bleh
 ----
 Symbolic Z-matrix:
 Charge =  0 Multiplicity = 1

 SCF Done:  E(RHF) =  -226.844606889     A.U. after   13 cycles
 E2 =    -0.6426817536D+00 EUMP2 =    -0.22748728864298D+03
 SCF Done:  E(RHF) =  -226.846007496     A.U. after   14 cycles
 E2 =    -0.6425926180D+00 EUMP2 =    -0.22748860011424D+03
 SCF Done:  E(RHF) =  -226.846909509     A.U. after   13 cycles
 E2 =    -0.6419491681D+00 EUMP2 =    -0.22748885867701D+03
 SCF Done:  E(RHF) =  -226.847262394     A.U. after   15 cycles
 E2 =    -0.6418834791D+00 EUMP2 =    -0.22748914587294D+03
 SCF Done:  E(RHF) =  -226.847682650     A.U. after   13 cycles
 E2 =    -0.6416521891D+00 EUMP2 =    -0.22748933483932D+03
 SCF Done:  E(RHF) =  -226.847915366     A.U. after   13 cycles
 E2 =    -0.6415039252D+00 EUMP2 =    -0.22748941929124D+03
 SCF Done:  E(RHF) =  -226.847846034     A.U. after   13 cycles
 E2 =    -0.6416440769D+00 EUMP2 =    -0.22748949011042D+03
 SCF Done:  E(RHF) =  -226.848023488     A.U. after   12 cycles
 E2 =    -0.6416054113D+00 EUMP2 =    -0.22748962889918D+03
 SCF Done:  E(RHF) =  -226.848100102     A.U. after   13 cycles
 E2 =    -0.6417884619D+00 EUMP2 =    -0.22748988856372D+03
 SCF Done:  E(RHF) =  -226.846154509     A.U. after   15 cycles
 E2 =    -0.6431971309D+00 EUMP2 =    -0.22748935164024D+03
 E2 =    -0.6422827986D+00 EUMP2 =    -0.22749014945547D+03
 E2 =    -0.6424950041D+00 EUMP2 =    -0.22749057611699D+03
 E2 =    -0.6424590193D+00 EUMP2 =    -0.22749068848211D+03
 E2 =    -0.6430283103D+00 EUMP2 =    -0.22749070263881D+03
 E2 =    -0.6428397549D+00 EUMP2 =    -0.22749087937703D+03
 E2 =    -0.6428205356D+00 EUMP2 =    -0.22749090455820D+03
 E2 =    -0.6430060842D+00 EUMP2 =    -0.22749092329468D+03
 E2 =    -0.6435513303D+00 EUMP2 =    -0.22749097050087D+03
 E2 =    -0.6438229477D+00 EUMP2 =    -0.22749101817367D+03
 E2 =    -0.6439543051D+00 EUMP2 =    -0.22749104755174D+03
 Optimization completed.
    -- Stationary point found.
 Normal termination of Gaussian 16 at Tue Dec  7 15:29:19 2021.

 ----------------------------------------------------------------------
 #N Geom=AllCheck Guess=TCheck SCRF=Check GenChk RMP2(FC)/Aug-CC-pVDZ F
 req
 ----------------------------------------------------------------------

 Structure from the checkpoint file:  "/gscratch/scrubbed/gds001/Gau-10125.chk"
 ----
 bleh
 ----
 Charge =  0 Multiplicity = 1

                         Standard orientation:
 ---------------------------------------------------------------------
 Center     Atomic      Atomic             Coordinates (Angstroms)
 Number     Number       Type             X           Y           Z
 ---------------------------------------------------------------------
      1          8           0       -1.025916   -0.683205   -0.111615
      2          8           0       -0.955226    0.783990   -0.015443
      3          1           0       -1.474428   -0.872667    0.729306
      4          1           0        0.016721    0.872527    0.083088
      5          8           0        1.721352   -0.012914    0.116731
      6          1           0        2.368223    0.067591   -0.595960
      7          1           0        1.167799   -0.770415   -0.133816
 ---------------------------------------------------------------------

 SCF Done:  E(RHF) =  -226.847690767     A.U. after   10 cycles
 E2 =    -0.6433845165D+00 EUMP2 =    -0.22749107528355D+03
 E2 =    -0.6433845165D+00 EUMP2 =    -0.22749107528355D+03
 SCF Done:  E(RHF) =  -226.847817108     A.U. after   10 cycles
 E2 =    -0.6432583386D+00 EUMP2 =    -0.22749107544629D+03
 E2 =    -0.6432583386D+00 EUMP2 =    -0.22749107544629D+03
 SCF Done:  E(RHF) =  -226.848290059     A.U. after   10 cycles
 E2 =    -0.6427133994D+00 EUMP2 =    -0.22749100345798D+03
 E2 =    -0.6427133994D+00 EUMP2 =    -0.22749100345798D+03
 SCF Done:  E(RHF) =  -226.847085109     A.U. after   10 cycles
 E2 =    -0.6439226830D+00 EUMP2 =    -0.22749100779181D+03
 E2 =    -0.6439226830D+00 EUMP2 =    -0.22749100779181D+03
 SCF Done:  E(RHF) =  -226.848301783     A.U. after    9 cycles
 E2 =    -0.6426946175D+00 EUMP2 =    -0.22749099640028D+03
 E2 =    -0.6426946175D+00 EUMP2 =    -0.22749099640028D+03
 SCF Done:  E(RHF) =  -226.847057310     A.U. after    9 cycles
 E2 =    -0.6439423206D+00 EUMP2 =    -0.22749099963068D+03
 E2 =    -0.6439423206D+00 EUMP2 =    -0.22749099963068D+03
 SCF Done:  E(RHF) =  -226.848141915     A.U. after   11 cycles
 E2 =    -0.6428530613D+00 EUMP2 =    -0.22749099497615D+03
 E2 =    -0.6428530613D+00 EUMP2 =    -0.22749099497615D+03
 SCF Done:  E(RHF) =  -226.847216208     A.U. after   11 cycles
 E2 =    -0.6437832045D+00 EUMP2 =    -0.22749099941263D+03
 E2 =    -0.6437832045D+00 EUMP2 =    -0.22749099941263D+03
 SCF Done:  E(RHF) =  -226.847489802     A.U. after    8 cycles
 E2 =    -0.6435016877D+00 EUMP2 =    -0.22749099148988D+03
 E2 =    -0.6435016877D+00 EUMP2 =    -0.22749099148988D+03
 SCF Done:  E(RHF) =  -226.847857492     A.U. after    8 cycles
 E2 =    -0.6431311583D+00 EUMP2 =    -0.22749098865067D+03
 E2 =    -0.6431311583D+00 EUMP2 =    -0.22749098865067D+03

 Alpha  occ. eigenvalues --  -20.64054 -20.63092 -20.59424  -1.46557  -1.37130
 Alpha  occ. eigenvalues --   -1.21275  -0.74614  -0.70561  -0.69337  -0.60533
 Alpha  occ. eigenvalues --   -0.59841  -0.53269  -0.51079  -0.48350
 Alpha virt. eigenvalues --    0.03407   0.04741   0.06385   0.08213   0.14529
 Alpha virt. eigenvalues --    0.16161   0.18007   0.20465   0.21526   0.22340
 Alpha virt. eigenvalues --    0.23921   0.24351   0.25052   0.26646   0.27504

 Mulliken charges:
               1
     1  O   -0.252822
     2  O   -0.221650
     3  H    0.220421
     4  H    0.260064
     5  O   -0.330062
     6  H    0.143831
     7  H    0.180218
 Sum of Mulliken charges =  -0.00000

 Dipole moment (field-independent basis, Debye):
    X=              1.2996    Y=             -1.2468    Z=              0.0411  Tot=              1.8014
 Quadrupole moment (field-independent basis, Debye-Ang):
   XX=            -17.2053   YY=            -18.0596   ZZ=            -18.7122
   XY=              1.9725   XZ=             -6.0016   YZ=             -1.0794

  Exact polarizability:  25.999   0.879  25.818  -0.919  -0.368  20.826
 Approx polarizability:  18.050   1.328  22.468  -1.004   0.149  16.803

                      1                      2                      3
                      A                      A                      A
 Frequencies --    135.2964               178.7751               203.4224
 Red. masses --      2.7452                 1.0414                 5.5564
 Frc consts  --      0.0296                 0.0196                 0.1355
 IR Inten    --     10.9092               156.2124                21.4794

                      4                      5                      6
                      A                      A                      A
 Frequencies --    246.9263               319.8829               480.1754
 Red. masses --      1.2715                 1.1835                 1.1688
 Frc consts  --      0.0457                 0.0713                 0.1588
 IR Inten    --    105.6673                27.4799               102.9768

                      7                      8                      9
                      A                      A                      A
 Frequencies --    654.0024               880.1027              1330.7698
 Red. masses --      1.0627                13.6111                 1.1000
 Frc consts  --      0.2678                 6.2117                 1.1477
 IR Inten    --    173.6898                 1.6719                90.6596

                     10                     11                     12
                      A                      A                      A
 Frequencies --   1497.8294              1617.7692              3596.2637
 Red. masses --      1.0742                 1.0784                 1.0682
 Frc consts  --      1.4199                 1.6629                 8.1398
 IR Inten    --     42.8342                66.7898               268.7304

                     13                     14                     15
                      A                      A                      A
 Frequencies --   3749.7972              3765.6990              3903.3842
 Red. masses --      1.0488                 1.0680                 1.0786
 Frc consts  --      8.6888                 8.9234                 9.6827
 IR Inten    --     61.3062                38.2632               109.7467

 - Thermochemistry -
 -------------------
 Temperature   298.150 Kelvin.  Pressure   1.00000 Atm.
 Atom     1 has atomic number  8 and mass  15.99491

 Molecular mass:    52.01604 amu.
 Principal axes and moments of inertia in atomic units:
                           1         2         3
     Eigenvalues --    73.86767 318.85598 383.82135
           X            0.99952   0.00663  -0.03031
           Y           -0.00749   0.99957  -0.02825
           Z            0.03011   0.02846   0.99914
 This molecule is an asymmetric top.
 Rotational symmetry number  1.
 Rotational temperatures (Kelvin)      1.17256     0.27164     0.22566
 Rotational constants (GHZ):          24.43208     5.66005     4.70203
 Zero-point vibrational energy     134939.3 (Joules/Mol)
                                   32.25128 (Kcal/Mol)
 Warning -- explicit consideration of   6 degrees of freedom as
           vibrations may cause significant error
 Vibrational temperatures:    194.66   257.22   292.68   355.27   460.24
          (Kelvin)            690.87   940.96  1266.27  1914.68  2155.04
                             2327.61  5174.22  5395.12  5418.00  5616.10

 Zero-point correction=                           0.051396 (Hartree/Particle)
 Thermal correction to Energy=                    0.057382
 Thermal correction to Enthalpy=                  0.058326
 Thermal correction to Gibbs Free Energy=         0.023579
 Sum of electronic and zero-point Energies=           -227.439697
 Sum of electronic and thermal Energies=              -227.433711
 Sum of electronic and thermal Enthalpies=            -227.432767
 Sum of electronic and thermal Free Energies=         -227.467514

                     E (Thermal)             CV                S
                      KCal/Mol        Cal/Mol-Kelvin    Cal/Mol-Kelvin
 Total                   36.008             17.987             73.132
 Electronic               0.000              0.000              0.000
 Translational            0.889              2.981             37.770
 Rotational               0.889              2.981             23.718
 Vibrational             34.230             12.025             11.645
 Vibration     1          0.613              1.918              2.869
 Vibration     2          0.629              1.868              2.341
 Vibration     3          0.639              1.835              2.102
 Vibration     4          0.661              1.768              1.752
 Vibration     5          0.706              1.636              1.311
 Vibration     6          0.837              1.294              0.710

 ## DEPERTURBED TRANSITIONS MOMENTS ##

 Electric dipole : Fundamental Bands
 ------------------------------------------------------------------------

 ## AFTER VARIATIONAL CORRECTION

 Electric dipole : Fundamental Bands
 ------------------------------------------------------------------------

 Optimization completed.
    -- Stationary point found.
 Normal termination of Gaussian 16 at Tue Dec  7 15:49:23 2021.
