 Gaussian 16, Revision A.03,
 Gaussian 16:  ES64L-G16RevA.03 25-Dec-2016

 ----------------------------------------------
 # MP2/aug-cc-pVDZ Opt Freq=(vibrot,anharmonic)
 ----------------------------------------------

 ---------
 hclo4_h2o
 ---------
 Symbolic Z-matrix:
 Charge =  0 Multiplicity = 1

 SCF Done:  E(RHF) =  -835.173980529     A.U. after   14 cycles
 E2 =    -0.1218386316D+01 EUMP2 =    -0.83639236684477D+03
 SCF Done:  E(RHF) =  -835.178969316     A.U. after   15 cycles
 E2 =    -0.1224667886D+01 EUMP2 =    -0.83640363720224D+03
 SCF Done:  E(RHF) =  -835.179682078     A.U. after   14 cycles
 E2 =    -0.1225215572D+01 EUMP2 =    -0.83640489764978D+03
 SCF Done:  E(RHF) =  -835.174983844     A.U. after   15 cycles
 E2 =    -0.1229329983D+01 EUMP2 =    -0.83640431382775D+03
 SCF Done:  E(RHF) =  -835.178192644     A.U. after   15 cycles
 E2 =    -0.1227058830D+01 EUMP2 =    -0.83640525147447D+03
 SCF Done:  E(RHF) =  -835.178381035     A.U. after   15 cycles
 E2 =    -0.1227540028D+01 EUMP2 =    -0.83640592106289D+03
 SCF Done:  E(RHF) =  -835.178682358     A.U. after   13 cycles
 E2 =    -0.1227689545D+01 EUMP2 =    -0.83640637190287D+03
 SCF Done:  E(RHF) =  -835.179023213     A.U. after   13 cycles
 E2 =    -0.1227589376D+01 EUMP2 =    -0.83640661258849D+03
 SCF Done:  E(RHF) =  -835.179413623     A.U. after   12 cycles
 E2 =    -0.1227389529D+01 EUMP2 =    -0.83640680315216D+03
 SCF Done:  E(RHF) =  -835.179639479     A.U. after   12 cycles
 E2 =    -0.1227325456D+01 EUMP2 =    -0.83640696493498D+03
 E2 =    -0.1227177008D+01 EUMP2 =    -0.83640711863969D+03
 E2 =    -0.1227238738D+01 EUMP2 =    -0.83640731529934D+03
 E2 =    -0.1227384797D+01 EUMP2 =    -0.83640742864851D+03
 E2 =    -0.1227650884D+01 EUMP2 =    -0.83640748523732D+03
 E2 =    -0.1227781319D+01 EUMP2 =    -0.83640751605445D+03
 E2 =    -0.1227888647D+01 EUMP2 =    -0.83640753838673D+03
 E2 =    -0.1227929424D+01 EUMP2 =    -0.83640755787662D+03
 E2 =    -0.1227857612D+01 EUMP2 =    -0.83640757264349D+03
 E2 =    -0.1227803146D+01 EUMP2 =    -0.83640758123769D+03
 E2 =    -0.1227775783D+01 EUMP2 =    -0.83640758726700D+03
 Optimization completed.
    -- Stationary point found.

 1\1\GINC-N2311\FOpt\RMP2-FC\Aug-CC-pVDZ\Cl1H3O5\GDS001\08-Sep-2020\0\\
 # MP2/aug-cc-pVDZ Opt Freq=(vibrot,anharmonic)\\hclo4_h2o\\0,1\Cl,-0.3
 648066782,0.5890550152,0.1746504489\O,0.120735704,0.9754874357,-1.1604
 028023\O,-0.526745175,1.7461171499,1.0797703195\O,0.3122666458,-0.5608
 222128,0.7667755339\O,-1.9236578202,-0.006248213,-0.0615419254\H,-2.41
 04770065,0.8203345633,-0.3651681141\O,-2.9540130933,2.3834460036,-0.72
 24666699\H,-2.4041750832,2.9547723376,-0.164108341\H,-2.7760620303,2.6
 808183443,-1.6259628719\\Version=ES64L-G16RevA.03\State=1-A\HF=-835.17

 Normal termination of Gaussian 16 at Tue Sep  8 11:42:36 2020.

 ----------------------------------------------------------------------
 #N Geom=AllCheck Guess=TCheck SCRF=Check GenChk RMP2(FC)/Aug-CC-pVDZ F
 req
 ----------------------------------------------------------------------

 Structure from the checkpoint file:  "hcl04_h2o.chk"
 ---------
 hclo4_h2o
 ---------
 Charge =  0 Multiplicity = 1

                         Standard orientation:
 ---------------------------------------------------------------------
 Center     Atomic      Atomic             Coordinates (Angstroms)
 Number     Number       Type             X           Y           Z
 ---------------------------------------------------------------------
      1         17           0        0.620752   -0.089883    0.002729
      2          8           0        0.380166   -0.728166    1.307398
      3          8           0        0.086019   -0.879852   -1.126107
      4          8           0        1.975240    0.418181   -0.193459
      5          8           0       -0.287116    1.329910    0.015150
      6          1           0       -1.225653    0.967995    0.039373
      7          8           0       -2.651056    0.058071   -0.042320
      8          1           0       -2.403843   -0.715341   -0.572622
      9          1           0       -2.949312   -0.309790    0.801555
 ---------------------------------------------------------------------

 SCF Done:  E(RHF) =  -835.179633352     A.U. after   10 cycles
 E2 =    -0.1227942638D+01 EUMP2 =    -0.83640757598976D+03
 E2 =    -0.1227942638D+01 EUMP2 =    -0.83640757598976D+03
 SCF Done:  E(RHF) =  -835.179923029     A.U. after   10 cycles
 E2 =    -0.1227652704D+01 EUMP2 =    -0.83640757573264D+03
 E2 =    -0.1227652704D+01 EUMP2 =    -0.83640757573264D+03
 SCF Done:  E(RHF) =  -835.179840319     A.U. after    9 cycles
 E2 =    -0.1227731483D+01 EUMP2 =    -0.83640757180196D+03
 E2 =    -0.1227731483D+01 EUMP2 =    -0.83640757180196D+03
 SCF Done:  E(RHF) =  -835.179707593     A.U. after    9 cycles
 E2 =    -0.1227863920D+01 EUMP2 =    -0.83640757151234D+03
 E2 =    -0.1227863920D+01 EUMP2 =    -0.83640757151234D+03
 SCF Done:  E(RHF) =  -835.179258351     A.U. after   10 cycles
 E2 =    -0.1228265161D+01 EUMP2 =    -0.83640752351195D+03
 E2 =    -0.1228265161D+01 EUMP2 =    -0.83640752351195D+03
 SCF Done:  E(RHF) =  -835.180201100     A.U. after   10 cycles
 E2 =    -0.1227318608D+01 EUMP2 =    -0.83640751970777D+03
 E2 =    -0.1227318608D+01 EUMP2 =    -0.83640751970777D+03
 SCF Done:  E(RHF) =  -835.180303101     A.U. after    9 cycles
 E2 =    -0.1227188901D+01 EUMP2 =    -0.83640749200271D+03
 E2 =    -0.1227188901D+01 EUMP2 =    -0.83640749200271D+03
 SCF Done:  E(RHF) =  -835.179094487     A.U. after    9 cycles
 E2 =    -0.1228400839D+01 EUMP2 =    -0.83640749532624D+03
 E2 =    -0.1228400839D+01 EUMP2 =    -0.83640749532624D+03
 SCF Done:  E(RHF) =  -835.179773757     A.U. after    8 cycles
 E2 =    -0.1227712715D+01 EUMP2 =    -0.83640748647186D+03
 E2 =    -0.1227712715D+01 EUMP2 =    -0.83640748647186D+03
 SCF Done:  E(RHF) =  -835.179614938     A.U. after    8 cycles
 E2 =    -0.1227872828D+01 EUMP2 =    -0.83640748776553D+03
 E2 =    -0.1227872828D+01 EUMP2 =    -0.83640748776553D+03

 Alpha  occ. eigenvalues -- -105.31009 -20.68998 -20.65042 -20.64961 -20.64916
 Alpha  occ. eigenvalues --  -20.63788 -10.98294  -8.45291  -8.45270  -8.45245
 Alpha  occ. eigenvalues --   -1.68048  -1.44155  -1.43542  -1.43274  -1.41097
 Alpha  occ. eigenvalues --   -0.99422  -0.84448  -0.79457  -0.78895  -0.77188
 Alpha  occ. eigenvalues --   -0.72175  -0.64387  -0.62820  -0.60280  -0.58709
 Alpha  occ. eigenvalues --   -0.56624  -0.55111  -0.54505  -0.53449  -0.51584
 Alpha virt. eigenvalues --    0.02465   0.05395   0.05830   0.09554   0.09990
 Alpha virt. eigenvalues --    0.11936   0.12628   0.14103   0.17051   0.18737
 Alpha virt. eigenvalues --    0.19153   0.20513   0.21111   0.21718   0.22786

 Mulliken charges:
               1
     1  Cl   2.857994
     2  O   -0.840500
     3  O   -0.857860
     4  O   -0.782573
     5  O   -0.683775
     6  H    0.313469
     7  O   -0.376880
     8  H    0.185863
     9  H    0.184263
 Sum of Mulliken charges =  -0.00000

 Dipole moment (field-independent basis, Debye):
    X=             -3.2589    Y=             -1.1781    Z=              0.6325  Tot=              3.5225
 Quadrupole moment (field-independent basis, Debye-Ang):
   XX=            -38.5195   YY=            -43.7399   ZZ=            -43.5436
   XY=              2.8623   XZ=             -2.6631   YZ=              0.4353

  Exact polarizability:  53.262   1.107  45.472  -0.415  -0.235  45.189
 Approx polarizability:  41.325   1.172  41.177  -0.578  -0.108  40.727

                      1                      2                      3
                      A                      A                      A
 Frequencies --     41.6968                89.8535               141.3315
 Red. masses --      6.3114                 5.0761                 1.0516
 Frc consts  --      0.0065                 0.0241                 0.0124
 IR Inten    --      2.0161                14.3803                58.9957

                      4                      5                      6
                      A                      A                      A
 Frequencies --    227.4538               315.4589               368.8285
 Red. masses --      7.5013                 1.2354                 6.7840
 Frc consts  --      0.2287                 0.0724                 0.5437
 IR Inten    --     17.5054                32.0686                 1.5314

                      7                      8                      9
                      A                      A                      A
 Frequencies --    383.4925               427.1450               518.6936
 Red. masses --      4.2170                 1.3717                11.2504
 Frc consts  --      0.3654                 0.1475                 1.7834
 IR Inten    --    109.8803               180.1019                 9.2546

                     10                     11                     12
                      A                      A                      A
 Frequencies --    528.5862               530.5061               695.7440
 Red. masses --     16.8268                14.8104                18.8294
 Frc consts  --      2.7700                 2.4558                 5.3701
 IR Inten    --     15.4720                 5.5629               205.2155

                     13                     14                     15
                      A                      A                      A
 Frequencies --    859.1237              1032.6813              1194.3315
 Red. masses --      1.0654                16.5611                16.3716
 Frc consts  --      0.4633                10.4057                13.7591
 IR Inten    --     50.5558                82.7384               286.0645

                     16                     17                     18
                      A                      A                      A
 Frequencies --   1233.4428              1422.1996              1626.3242
 Red. masses --      9.2065                 1.1831                 1.0819
 Frc consts  --      8.2524                 1.4099                 1.6859
 IR Inten    --    224.3041               118.0619                59.2202

                     19                     20                     21
                      A                      A                      A
 Frequencies --   3169.7084              3766.2178              3892.6863
 Red. masses --      1.0690                 1.0459                 1.0808
 Frc consts  --      6.3279                 8.7409                 9.6494
 IR Inten    --   1063.5068                21.3627               106.9499

 - Thermochemistry -
 -------------------
 Temperature   298.150 Kelvin.  Pressure   1.00000 Atm.
 Atom     1 has atomic number 17 and mass  34.96885

 Molecular mass:   117.96690 amu.
 Principal axes and moments of inertia in atomic units:
                           1         2         3
     Eigenvalues --   368.01737 917.60555 934.09473
           X            0.99993   0.00993  -0.00620
           Y           -0.00967   0.99912   0.04080
           Z            0.00660  -0.04073   0.99915
 This molecule is an asymmetric top.
 Rotational symmetry number  1.
 Rotational temperatures (Kelvin)      0.23535     0.09439     0.09272
 Rotational constants (GHZ):           4.90396     1.96679     1.93208
 Zero-point vibrational energy     134373.6 (Joules/Mol)
                                   32.11605 (Kcal/Mol)
 Warning -- explicit consideration of  11 degrees of freedom as
           vibrations may cause significant error
 Vibrational temperatures:     59.99   129.28   203.34   327.26   453.88
          (Kelvin)            530.66   551.76   614.57   746.28   760.52
                              763.28  1001.02  1236.09  1485.80  1718.38
                             1774.65  2046.23  2339.92  4560.50  5418.75
                             5600.71

 Zero-point correction=                           0.051180 (Hartree/Particle)
 Thermal correction to Energy=                    0.059017
 Thermal correction to Enthalpy=                  0.059961
 Thermal correction to Gibbs Free Energy=         0.018272
 Sum of electronic and zero-point Energies=           -836.356409
 Sum of electronic and thermal Energies=              -836.348573
 Sum of electronic and thermal Enthalpies=            -836.347629
 Sum of electronic and thermal Free Energies=         -836.389318

                     E (Thermal)             CV                S
                      KCal/Mol        Cal/Mol-Kelvin    Cal/Mol-Kelvin
 Total                   37.034             25.561             87.742
 Electronic               0.000              0.000              0.000
 Translational            0.889              2.981             40.211
 Rotational               0.889              2.981             27.247
 Vibrational             35.256             19.600             20.285
 Vibration     1          0.594              1.981              5.177
 Vibration     2          0.602              1.956              3.663
 Vibration     3          0.615              1.912              2.786
 Vibration     4          0.651              1.799              1.899
 Vibration     5          0.703              1.644              1.334
 Vibration     6          0.741              1.536              1.085
 Vibration     7          0.753              1.505              1.025
 Vibration     8          0.789              1.411              0.868
 Vibration     9          0.874              1.209              0.613
 Vibration    10          0.884              1.187              0.590
 Vibration    11          0.885              1.183              0.586

 ## DEPERTURBED TRANSITIONS MOMENTS ##

 Electric dipole : Fundamental Bands
 ------------------------------------------------------------------------

 ## AFTER VARIATIONAL CORRECTION

 Electric dipole : Fundamental Bands
 ------------------------------------------------------------------------

 Optimization completed.
    -- Stationary point found.

 1\1\GINC-N2311\Freq\RMP2-FC\Aug-CC-pVDZ\Cl1H3O5\GDS001\08-Sep-2020\0\\
 #N Geom=AllCheck Guess=TCheck SCRF=Check GenChk RMP2(FC)/Aug-CC-pVDZ F
 req\\hclo4_h2o\\0,1\Cl,-0.3648066782,0.5890550152,0.1746504489\O,0.120
 735704,0.9754874357,-1.1604028023\O,-0.526745175,1.7461171499,1.079770
 3195\O,0.3122666458,-0.5608222128,0.7667755339\O,-1.9236578202,-0.0062
 48213,-0.0615419254\H,-2.4104770065,0.8203345633,-0.3651681141\O,-2.95
 40130933,2.3834460036,-0.7224666699\H,-2.4041750832,2.9547723376,-0.16
 4108341\H,-2.7760620303,2.6808183443,-1.6259628719\\Version=ES64L-G16R

 Normal termination of Gaussian 16 at Tue Sep  8 14:29:05 2020.
