 Gaussian 16, Revision A.03,
 Gaussian 16:  ES64L-G16RevA.03 25-Dec-2016

 ----------------------------------------------
 # mp2/aug-cc-pVTZ opt freq=(vibrot,anharmonic)
 ----------------------------------------------

 -------------
 ClO4H --- OH2
 -------------
 Symbolic Z-matrix:
 Charge =  0 Multiplicity = 1

 SCF Done:  E(RHF) =  -835.342045990     A.U. after   14 cycles
 E2 =    -0.1506770943D+01 EUMP2 =    -0.83684881693251D+03
 SCF Done:  E(RHF) =  -835.355733759     A.U. after   11 cycles
 E2 =    -0.1498720812D+01 EUMP2 =    -0.83685445457131D+03
 SCF Done:  E(RHF) =  -835.362101196     A.U. after   13 cycles
 E2 =    -0.1492063444D+01 EUMP2 =    -0.83685416464023D+03
 SCF Done:  E(RHF) =  -835.362901274     A.U. after   12 cycles
 E2 =    -0.1492480927D+01 EUMP2 =    -0.83685538220145D+03
 SCF Done:  E(RHF) =  -835.359911422     A.U. after   11 cycles
 E2 =    -0.1493268042D+01 EUMP2 =    -0.83685317946398D+03
 SCF Done:  E(RHF) =  -835.362627181     A.U. after   12 cycles
 E2 =    -0.1492723015D+01 EUMP2 =    -0.83685535019598D+03
 SCF Done:  E(RHF) =  -835.362868827     A.U. after    8 cycles
 E2 =    -0.1492581067D+01 EUMP2 =    -0.83685544989387D+03
 SCF Done:  E(RHF) =  -835.362739593     A.U. after    9 cycles
 E2 =    -0.1492740911D+01 EUMP2 =    -0.83685548050403D+03
 SCF Done:  E(RHF) =  -835.362663162     A.U. after    9 cycles
 E2 =    -0.1492831297D+01 EUMP2 =    -0.83685549445888D+03
 SCF Done:  E(RHF) =  -835.362665924     A.U. after    9 cycles
 E2 =    -0.1492833744D+01 EUMP2 =    -0.83685549966788D+03
 E2 =    -0.1492832215D+01 EUMP2 =    -0.83685550204972D+03
 E2 =    -0.1492870871D+01 EUMP2 =    -0.83685550381571D+03
 E2 =    -0.1492889251D+01 EUMP2 =    -0.83685550398340D+03
 Optimization completed.
    -- Stationary point found.

 1\1\GINC-N2283\FOpt\RMP2-FC\Aug-CC-pVTZ\Cl1H3O5\GDS001\25-Jun-2021\0\\
 # mp2/aug-cc-pVTZ opt freq=(vibrot,anharmonic)\\ClO4H --- OH2\\0,1\Cl,
 0.6192350973,-0.0813162126,0.0031659446\O,0.4114228901,-0.7141081286,1
 .2721780406\O,0.103647704,-0.8558419034,-1.0933755779\O,1.9309326367,0
 .4282692502,-0.1981026089\O,-0.2774974686,1.2675948281,0.0304462511\H,
 -1.218830869,0.9157930378,0.0520247024\O,-2.6412976274,0.0762662395,-0
 .0349776713\H,-2.4420639823,-0.6822436911,-0.5983635668\H,-2.940351380
 7,-0.3032884199,0.7987014863\\Version=ES64L-G16RevA.03\State=1-A\HF=-8

 Normal termination of Gaussian 16 at Fri Jun 25 17:00:26 2021.

 ----------------------------------------------------------------------
 #N Geom=AllCheck Guess=TCheck SCRF=Check GenChk RMP2(FC)/Aug-CC-pVTZ F
 req
 ----------------------------------------------------------------------

 Structure from the checkpoint file:  "hclo4_h2o_mp2_avtz_opt_anharm.chk"
 -------------
 ClO4H --- OH2
 -------------
 Charge =  0 Multiplicity = 1

                         Standard orientation:
 ---------------------------------------------------------------------
 Center     Atomic      Atomic             Coordinates (Angstroms)
 Number     Number       Type             X           Y           Z
 ---------------------------------------------------------------------
      1         17           0        0.617124   -0.081953    0.002911
      2          8           0        0.411067   -0.692329    1.283139
      3          8           0        0.104476   -0.877970   -1.079528
      4          8           0        1.927157    0.428322   -0.207254
      5          8           0       -0.284157    1.264197    0.005514
      6          1           0       -1.224306    0.909670    0.033246
      7          8           0       -2.643909    0.063908   -0.038856
      8          1           0       -2.441953   -0.704016   -0.588348
      9          1           0       -2.941931   -0.301474    0.801498
 ---------------------------------------------------------------------

 E2 =    -0.1492889271D+01 EUMP2 =    -0.83685550400308D+03
 E2 =    -0.1492889271D+01 EUMP2 =    -0.83685550400308D+03
 E2 =    -0.1492888668D+01 EUMP2 =    -0.83685550391094D+03
 E2 =    -0.1492888668D+01 EUMP2 =    -0.83685550391094D+03
 E2 =    -0.1492890403D+01 EUMP2 =    -0.83685550406041D+03
 E2 =    -0.1492890403D+01 EUMP2 =    -0.83685550406041D+03
 E2 =    -0.1492900052D+01 EUMP2 =    -0.83685550402477D+03
 SCF Done:  E(RHF) =  -835.362752863     A.U. after    9 cycles
 E2 =    -0.1492736842D+01 EUMP2 =    -0.83685548970453D+03
 E2 =    -0.1492736842D+01 EUMP2 =    -0.83685548970453D+03
 SCF Done:  E(RHF) =  -835.362440101     A.U. after    9 cycles
 E2 =    -0.1493049505D+01 EUMP2 =    -0.83685548960621D+03
 E2 =    -0.1493049505D+01 EUMP2 =    -0.83685548960621D+03
 SCF Done:  E(RHF) =  -835.362658385     A.U. after    8 cycles
 E2 =    -0.1492827453D+01 EUMP2 =    -0.83685548583819D+03
 E2 =    -0.1492827453D+01 EUMP2 =    -0.83685548583819D+03
 SCF Done:  E(RHF) =  -835.362526474     A.U. after    8 cycles
 E2 =    -0.1492959580D+01 EUMP2 =    -0.83685548605443D+03
 E2 =    -0.1492959580D+01 EUMP2 =    -0.83685548605443D+03
 SCF Done:  E(RHF) =  -835.362999088     A.U. after    9 cycles
 E2 =    -0.1492437309D+01 EUMP2 =    -0.83685543639643D+03
 E2 =    -0.1492437309D+01 EUMP2 =    -0.83685543639643D+03
 SCF Done:  E(RHF) =  -835.362101105     A.U. after    9 cycles
 E2 =    -0.1493338391D+01 EUMP2 =    -0.83685543949619D+03
 E2 =    -0.1493338391D+01 EUMP2 =    -0.83685543949619D+03
 SCF Done:  E(RHF) =  -835.363069618     A.U. after    8 cycles
 E2 =    -0.1492336014D+01 EUMP2 =    -0.83685540563157D+03
 E2 =    -0.1492336014D+01 EUMP2 =    -0.83685540563157D+03
 SCF Done:  E(RHF) =  -835.361963285     A.U. after    8 cycles
 E2 =    -0.1493445569D+01 EUMP2 =    -0.83685540885392D+03
 E2 =    -0.1493445569D+01 EUMP2 =    -0.83685540885392D+03
 SCF Done:  E(RHF) =  -835.362439666     A.U. after    7 cycles
 E2 =    -0.1492962095D+01 EUMP2 =    -0.83685540176102D+03
 E2 =    -0.1492962095D+01 EUMP2 =    -0.83685540176102D+03
 SCF Done:  E(RHF) =  -835.362585054     A.U. after    8 cycles
 E2 =    -0.1492815483D+01 EUMP2 =    -0.83685540053627D+03
 E2 =    -0.1492815483D+01 EUMP2 =    -0.83685540053627D+03

 Alpha  occ. eigenvalues -- -105.29543 -20.67008 -20.63118 -20.63017 -20.62991
 Alpha  occ. eigenvalues --  -20.62989 -10.96003  -8.43141  -8.43043  -8.43036
 Alpha  occ. eigenvalues --   -1.70068  -1.45294  -1.44616  -1.44290  -1.41524
 Alpha  occ. eigenvalues --   -0.97445  -0.84819  -0.79602  -0.79014  -0.77818
 Alpha  occ. eigenvalues --   -0.72231  -0.64735  -0.63633  -0.61247  -0.59767
 Alpha  occ. eigenvalues --   -0.57309  -0.56482  -0.54596  -0.53166  -0.51219
 Alpha virt. eigenvalues --    0.01912   0.04348   0.05141   0.08538   0.10259
 Alpha virt. eigenvalues --    0.10787   0.11708   0.13478   0.13904   0.15578
 Alpha virt. eigenvalues --    0.15896   0.16783   0.17685   0.17952   0.19016

 Mulliken charges:
               1
     1  Cl   2.354187
     2  O   -0.743294
     3  O   -0.751523
     4  O   -0.692843
     5  O   -0.564791
     6  H    0.301584
     7  O   -0.345380
     8  H    0.235445
     9  H    0.206615
 Sum of Mulliken charges =  -0.00000

 Dipole moment (field-independent basis, Debye):
    X=             -3.5811    Y=             -1.0752    Z=              0.5567  Tot=              3.7803
 Quadrupole moment (field-independent basis, Debye-Ang):
   XX=            -37.2244   YY=            -42.8529   ZZ=            -42.6464
   XY=              2.9608   XZ=             -2.4027   YZ=              0.5123

  Exact polarizability:  50.649   1.370  42.856  -0.298  -0.087  42.924
 Approx polarizability:  38.714   1.387  38.153  -0.493   0.044  38.224

                      1                      2                      3
                      A                      A                      A
 Frequencies --     36.0139                85.8857               137.2748
 Red. masses --      6.2781                 4.7912                 1.0527
 Frc consts  --      0.0048                 0.0208                 0.0117
 IR Inten    --      1.0642                17.3648                59.0167

                      4                      5                      6
                      A                      A                      A
 Frequencies --    235.4029               325.9254               405.9570
 Red. masses --      6.6486                 1.1771                 1.6742
 Frc consts  --      0.2171                 0.0737                 0.1626
 IR Inten    --     16.1124                34.3928               249.2814

                      7                      8                      9
                      A                      A                      A
 Frequencies --    410.4061               440.9782               567.1264
 Red. masses --      9.3019                 2.9463                11.1356
 Frc consts  --      0.9231                 0.3376                 2.1102
 IR Inten    --      0.5106                32.1149                12.5354

                     10                     11                     12
                      A                      A                      A
 Frequencies --    574.8443               576.3315               759.7290
 Red. masses --     16.1206                16.0525                18.4092
 Frc consts  --      3.1386                 3.1415                 6.2604
 IR Inten    --     12.8138                12.8450               198.1113

                     13                     14                     15
                      A                      A                      A
 Frequencies --    904.0522              1081.1259              1268.5048
 Red. masses --      1.0627                16.5768                15.6824
 Frc consts  --      0.5117                11.4157                14.8678
 IR Inten    --     56.2646                90.9358               287.5225

                     16                     17                     18
                      A                      A                      A
 Frequencies --   1305.7303              1456.7194              1634.3168
 Red. masses --      6.8749                 1.2467                 1.0831
 Frc consts  --      6.9060                 1.5587                 1.7044
 IR Inten    --    211.1917               144.8288                59.6860

                     19                     20                     21
                      A                      A                      A
 Frequencies --   3125.7868              3783.6174              3901.2529
 Red. masses --      1.0703                 1.0453                 1.0813
 Frc consts  --      6.1611                 8.8164                 9.6959
 IR Inten    --   1249.4596                24.7568               119.7756

 - Thermochemistry -
 -------------------
 Temperature   298.150 Kelvin.  Pressure   1.00000 Atm.
 Atom     1 has atomic number 17 and mass  34.96885

 Molecular mass:   117.96690 amu.
 Principal axes and moments of inertia in atomic units:
                           1         2         3
     Eigenvalues --   345.96974 897.03960 909.70433
           X            0.99993   0.01024  -0.00561
           Y           -0.00992   0.99848   0.05418
           Z            0.00616  -0.05412   0.99852
 This molecule is an asymmetric top.
 Rotational symmetry number  1.
 Rotational temperatures (Kelvin)      0.25035     0.09656     0.09521
 Rotational constants (GHZ):           5.21647     2.01189     1.98388
 Zero-point vibrational energy     137672.1 (Joules/Mol)
                                   32.90443 (Kcal/Mol)
 Warning -- explicit consideration of  11 degrees of freedom as
           vibrations may cause significant error
 Vibrational temperatures:     51.82   123.57   197.51   338.69   468.93
          (Kelvin)            584.08   590.48   634.47   815.97   827.07
                              829.21  1093.08  1300.73  1555.50  1825.10
                             1878.65  2095.89  2351.42  4497.31  5443.78
                             5613.03

 Zero-point correction=                           0.052437 (Hartree/Particle)
 Thermal correction to Energy=                    0.060062
 Thermal correction to Enthalpy=                  0.061006
 Thermal correction to Gibbs Free Energy=         0.019557
 Sum of electronic and zero-point Energies=           -836.803067
 Sum of electronic and thermal Energies=              -836.795442
 Sum of electronic and thermal Enthalpies=            -836.794498
 Sum of electronic and thermal Free Energies=         -836.835947

                     E (Thermal)             CV                S
                      KCal/Mol        Cal/Mol-Kelvin    Cal/Mol-Kelvin
 Total                   37.689             24.739             87.238
 Electronic               0.000              0.000              0.000
 Translational            0.889              2.981             40.211
 Rotational               0.889              2.981             27.137
 Vibrational             35.912             18.777             19.891
 Vibration     1          0.594              1.982              5.467
 Vibration     2          0.601              1.959              3.752
 Vibration     3          0.614              1.916              2.842
 Vibration     4          0.655              1.787              1.837
 Vibration     5          0.710              1.624              1.280
 Vibration     6          0.771              1.457              0.941
 Vibration     7          0.775              1.448              0.925
 Vibration     8          0.801              1.381              0.824
 Vibration     9          0.923              1.102              0.510
 Vibration    10          0.931              1.086              0.495
 Vibration    11          0.933              1.082              0.492

 ## DEPERTURBED TRANSITIONS MOMENTS ##

 Electric dipole : Fundamental Bands
 ------------------------------------------------------------------------

 ## AFTER VARIATIONAL CORRECTION

 Electric dipole : Fundamental Bands
 ------------------------------------------------------------------------

                           ! Non-Optimized Parameters !

 1\1\GINC-N2283\Freq\RMP2-FC\Aug-CC-pVTZ\Cl1H3O5\GDS001\27-Jun-2021\0\\
 #N Geom=AllCheck Guess=TCheck SCRF=Check GenChk RMP2(FC)/Aug-CC-pVTZ F
 req\\ClO4H --- OH2\\0,1\Cl,0.6192350973,-0.0813162126,0.0031659446\O,0
 .4114228901,-0.7141081286,1.2721780406\O,0.103647704,-0.8558419034,-1.
 0933755779\O,1.9309326367,0.4282692502,-0.1981026089\O,-0.2774974686,1
 .2675948281,0.0304462511\H,-1.218830869,0.9157930378,0.0520247024\O,-2
 .6412976274,0.0762662395,-0.0349776713\H,-2.4420639823,-0.6822436911,-
 0.5983635668\H,-2.9403513807,-0.3032884199,0.7987014863\\Version=ES64L

 Normal termination of Gaussian 16 at Sun Jun 27 13:08:23 2021.
