 Gaussian 16, Revision C.01,
 Gaussian 16:  EM64L-G16RevC.01  3-Jul-2019

 ----------------------------------------------
 # MP2/aug-cc-pVDZ opt freq=(vibrot,anharmonic)
 ----------------------------------------------

 ----
 blah
 ----
 Symbolic Z-matrix:
 Charge =  0 Multiplicity = 1

 SCF Done:  E(RHF) =  -355.550714879     A.U. after   15 cycles
 E2 =    -0.1011152112D+01 EUMP2 =    -0.35656186699108D+03
 SCF Done:  E(RHF) =  -355.546807323     A.U. after   15 cycles
 E2 =    -0.1014191342D+01 EUMP2 =    -0.35656099866485D+03
 SCF Done:  E(RHF) =  -355.543706863     A.U. after   13 cycles
 E2 =    -0.1018137183D+01 EUMP2 =    -0.35656184404595D+03
 SCF Done:  E(RHF) =  -355.547604703     A.U. after    8 cycles
 E2 =    -0.1014552778D+01 EUMP2 =    -0.35656215748093D+03
 SCF Done:  E(RHF) =  -355.546958391     A.U. after   12 cycles
 E2 =    -0.1015255892D+01 EUMP2 =    -0.35656221428313D+03
 SCF Done:  E(RHF) =  -355.546949401     A.U. after   13 cycles
 E2 =    -0.1015235414D+01 EUMP2 =    -0.35656218481475D+03
 SCF Done:  E(RHF) =  -355.547132169     A.U. after   13 cycles
 E2 =    -0.1015098685D+01 EUMP2 =    -0.35656223085456D+03
 SCF Done:  E(RHF) =  -355.547148616     A.U. after   10 cycles
 E2 =    -0.1015082832D+01 EUMP2 =    -0.35656223144854D+03
 SCF Done:  E(RHF) =  -355.547126317     A.U. after    9 cycles
 E2 =    -0.1015105510D+01 EUMP2 =    -0.35656223182743D+03
 SCF Done:  E(RHF) =  -355.547120184     A.U. after    9 cycles
 E2 =    -0.1015111852D+01 EUMP2 =    -0.35656223203546D+03
 Optimization completed.
    -- Stationary point found.
 Normal termination of Gaussian 16 at Wed Mar 19 23:24:41 2025.

 ----------------------------------------------------------------------
 #N Geom=AllCheck Guess=TCheck SCRF=Check GenChk RMP2(FC)/Aug-CC-pVDZ F
 req
 ----------------------------------------------------------------------

 Structure from the checkpoint file:  "/scr/Gau-41192.chk"
 ----
 blah
 ----
 Charge =  0 Multiplicity = 1

                         Standard orientation:
 ---------------------------------------------------------------------
 Center     Atomic      Atomic             Coordinates (Angstroms)
 Number     Number       Type             X           Y           Z
 ---------------------------------------------------------------------
      1          8           0        0.093998   -1.074858   -0.010728
      2          7           0        0.858765    0.078551    0.002346
      3          8           0        2.059555   -0.111533    0.018514
      4          8           0        0.253722    1.150169   -0.003606
      5          1           0       -0.846778   -0.742288   -0.019802
      6          8           0       -2.403307   -0.029285   -0.082092
      7          1           0       -2.120718    0.891411    0.029871
      8          1           0       -3.075605   -0.174921    0.596798
 ---------------------------------------------------------------------

 E2 =    -0.1015111843D+01 EUMP2 =    -0.35656223202729D+03
 E2 =    -0.1015111843D+01 EUMP2 =    -0.35656223202729D+03
 E2 =    -0.1015112330D+01 EUMP2 =    -0.35656223203033D+03
 E2 =    -0.1015112330D+01 EUMP2 =    -0.35656223203033D+03
 E2 =    -0.1015112044D+01 EUMP2 =    -0.35656223196540D+03
 E2 =    -0.1015112044D+01 EUMP2 =    -0.35656223196540D+03
 E2 =    -0.1015120753D+01 EUMP2 =    -0.35656223189125D+03
 E2 =    -0.1015120753D+01 EUMP2 =    -0.35656223189125D+03
 E2 =    -0.1015103676D+01 EUMP2 =    -0.35656223199245D+03
 E2 =    -0.1015103676D+01 EUMP2 =    -0.35656223199245D+03
 SCF Done:  E(RHF) =  -355.547012828     A.U. after   10 cycles
 E2 =    -0.1015201397D+01 EUMP2 =    -0.35656221422562D+03
 E2 =    -0.1015201397D+01 EUMP2 =    -0.35656221422562D+03
 SCF Done:  E(RHF) =  -355.547183921     A.U. after   10 cycles
 E2 =    -0.1015030676D+01 EUMP2 =    -0.35656221459691D+03
 E2 =    -0.1015030676D+01 EUMP2 =    -0.35656221459691D+03
 SCF Done:  E(RHF) =  -355.546963174     A.U. after   10 cycles
 E2 =    -0.1015245404D+01 EUMP2 =    -0.35656220857799D+03
 E2 =    -0.1015245404D+01 EUMP2 =    -0.35656220857799D+03
 SCF Done:  E(RHF) =  -355.547241141     A.U. after   10 cycles
 E2 =    -0.1014969070D+01 EUMP2 =    -0.35656221021072D+03
 E2 =    -0.1014969070D+01 EUMP2 =    -0.35656221021072D+03
 SCF Done:  E(RHF) =  -355.547537935     A.U. after   10 cycles
 E2 =    -0.1014618622D+01 EUMP2 =    -0.35656215655670D+03
 E2 =    -0.1014618622D+01 EUMP2 =    -0.35656215655670D+03
 SCF Done:  E(RHF) =  -355.546557497     A.U. after   10 cycles
 E2 =    -0.1015604083D+01 EUMP2 =    -0.35656216157974D+03
 E2 =    -0.1015604083D+01 EUMP2 =    -0.35656216157974D+03
 SCF Done:  E(RHF) =  -355.546416795     A.U. after    9 cycles
 E2 =    -0.1015720180D+01 EUMP2 =    -0.35656213697503D+03
 E2 =    -0.1015720180D+01 EUMP2 =    -0.35656213697503D+03
 SCF Done:  E(RHF) =  -355.547628408     A.U. after    9 cycles
 E2 =    -0.1014506593D+01 EUMP2 =    -0.35656213500062D+03
 E2 =    -0.1014506593D+01 EUMP2 =    -0.35656213500062D+03
 SCF Done:  E(RHF) =  -355.547123405     A.U. after    9 cycles
 E2 =    -0.1015004858D+01 EUMP2 =    -0.35656212826360D+03
 E2 =    -0.1015004858D+01 EUMP2 =    -0.35656212826360D+03
 SCF Done:  E(RHF) =  -355.546911895     A.U. after    9 cycles
 E2 =    -0.1015217732D+01 EUMP2 =    -0.35656212962681D+03
 E2 =    -0.1015217732D+01 EUMP2 =    -0.35656212962681D+03

 Alpha  occ. eigenvalues --  -20.67619 -20.64329 -20.63896 -20.62679 -15.93233
 Alpha  occ. eigenvalues --   -1.66663  -1.44307  -1.42774  -1.40167  -0.94666
 Alpha  occ. eigenvalues --   -0.81710  -0.77508  -0.77064  -0.76398  -0.68843
 Alpha  occ. eigenvalues --   -0.62999  -0.56252  -0.55702  -0.53516  -0.51737
 Alpha  occ. eigenvalues --   -0.48540
 Alpha virt. eigenvalues --    0.02342   0.05540   0.06184   0.08144   0.12181
 Alpha virt. eigenvalues --    0.14164   0.14798   0.17330   0.18358   0.19739
 Alpha virt. eigenvalues --    0.19964   0.22234   0.22954   0.23471   0.23670

 Mulliken charges:
               1
     1  O   -0.417039
     2  N    1.152069
     3  O   -0.488622
     4  O   -0.499217
     5  H    0.277154
     6  O   -0.364902
     7  H    0.173778
     8  H    0.166779
 Sum of Mulliken charges =  -0.00000

 Dipole moment (field-independent basis, Debye):
    X=             -3.8751    Y=              0.4682    Z=              1.2390  Tot=              4.0952
 Quadrupole moment (field-independent basis, Debye-Ang):
   XX=            -25.3173   YY=            -31.1241   ZZ=            -28.4863
   XY=             -0.9212   XZ=             -4.3162   YZ=             -0.2038

  Exact polarizability:      47.342      -2.316      36.992      -0.447      -0.117      24.212
 Approx polarizability:      35.977      -3.235      31.637      -0.548      -0.051      21.753

                      1                      2                      3
                      A                      A                      A
 Frequencies --     74.5666               117.7034               172.7595
 Red. masses --      7.5854                 3.8438                 1.0946
 Frc consts  --      0.0248                 0.0314                 0.0192
 IR Inten    --      2.2325                15.2067                63.2899

                      4                      5                      6
                      A                      A                      A
 Frequencies --    223.4218               309.2985               424.9647
 Red. masses --      5.3183                 1.2544                 1.2209
 Frc consts  --      0.1564                 0.0707                 0.1299
 IR Inten    --     24.6952               156.0553                91.9067

                      7                      8                      9
                      A                      A                      A
 Frequencies --    637.2568               687.0801               774.5330
 Red. masses --      5.7006                13.8093                12.7284
 Frc consts  --      1.3639                 3.8409                 4.4989
 IR Inten    --      2.4112                 2.2570                14.8085

                     10                     11                     12
                      A                      A                      A
 Frequencies --    867.7539               939.7116              1334.3558
 Red. masses --      1.0656                14.7317                14.6901
 Frc consts  --      0.4728                 7.6647                15.4106
 IR Inten    --    101.7535               160.3493               263.2825

                     13                     14                     15
                      A                      A                      A
 Frequencies --   1503.5571              1615.0133              1830.4950
 Red. masses --      1.2268                 1.0951                 6.0361
 Frc consts  --      1.6340                 1.6829                11.9163
 IR Inten    --     99.7564               116.4399               245.6350

                     16                     17                     18
                      A                      A                      A
 Frequencies --   3285.4259              3769.7963              3905.5539
 Red. masses --      1.0704                 1.0460                 1.0809
 Frc consts  --      6.8076                 8.7584                 9.7140
 IR Inten    --    996.0553                21.5700               118.5496

 - Thermochemistry -
 -------------------
 Temperature   298.150 Kelvin.  Pressure   1.00000 Atm.
 Atom     1 has atomic number  8 and mass  15.99491

 Molecular mass:    81.00621 amu.
 Principal axes and moments of inertia in atomic units:
                           1         2         3
     Eigenvalues --   149.17315 666.17677 812.12571
           X            0.99993  -0.00497  -0.01029
           Y            0.00495   0.99999  -0.00135
           Z            0.01029   0.00130   0.99995
 This molecule is an asymmetric top.
 Rotational symmetry number  1.
 Rotational temperatures (Kelvin)      0.58063     0.13002     0.10665
 Rotational constants (GHZ):          12.09830     2.70910     2.22224
 Zero-point vibrational energy     134419.9 (Joules/Mol)
                                   32.12712 (Kcal/Mol)
 Warning -- explicit consideration of   6 degrees of freedom as
           vibrations may cause significant error
 Vibrational temperatures:    107.28   169.35   248.56   321.45   445.01
          (Kelvin)            611.43   916.87   988.56  1114.38  1248.50
                             1352.04  1919.84  2163.28  2323.64  2633.67
                             4727.00  5423.90  5619.22

 Zero-point correction=                           0.051198 (Hartree/Particle)
 Thermal correction to Energy=                    0.057811
 Thermal correction to Enthalpy=                  0.058755
 Thermal correction to Gibbs Free Energy=         0.020749
 Sum of electronic and zero-point Energies=           -356.511034
 Sum of electronic and thermal Energies=              -356.504421
 Sum of electronic and thermal Enthalpies=            -356.503477
 Sum of electronic and thermal Free Energies=         -356.541483

                     E (Thermal)             CV                S
                      KCal/Mol        Cal/Mol-Kelvin    Cal/Mol-Kelvin
 Total                   36.277             20.389             79.991
 Electronic               0.000              0.000              0.000
 Translational            0.889              2.981             39.090
 Rotational               0.889              2.981             25.893
 Vibrational             34.500             14.428             15.008
 Vibration     1          0.599              1.966              4.029
 Vibration     2          0.608              1.935              3.138
 Vibration     3          0.626              1.876              2.405
 Vibration     4          0.649              1.805              1.931
 Vibration     5          0.699              1.656              1.366
 Vibration     6          0.787              1.416              0.875

 ## DEPERTURBED TRANSITIONS MOMENTS ##

 Electric dipole : Fundamental Bands
 ------------------------------------------------------------------------

 ## AFTER VARIATIONAL CORRECTION

 Electric dipole : Fundamental Bands
 ------------------------------------------------------------------------

                           ! Non-Optimized Parameters !
 Normal termination of Gaussian 16 at Thu Mar 20 00:16:35 2025.
