 Gaussian 16, Revision C.01,
 Gaussian 16:  EM64L-G16RevC.01  3-Jul-2019

 ----------------------------------------------
 # MP2/aug-cc-pVTZ opt freq=(vibrot,anharmonic)
 ----------------------------------------------

 ----
 blah
 ----
 Symbolic Z-matrix:
 Charge =  0 Multiplicity = 1

 SCF Done:  E(RHF) =  -355.635102958     A.U. after   14 cycles
 E2 =    -0.1224559103D+01 EUMP2 =    -0.35685966206094D+03
 SCF Done:  E(RHF) =  -355.635180748     A.U. after   11 cycles
 E2 =    -0.1224468992D+01 EUMP2 =    -0.35685964974082D+03
 SCF Done:  E(RHF) =  -355.635111728     A.U. after   11 cycles
 E2 =    -0.1224550091D+01 EUMP2 =    -0.35685966181922D+03
 SCF Done:  E(RHF) =  -355.635127913     A.U. after   10 cycles
 E2 =    -0.1224533490D+01 EUMP2 =    -0.35685966140333D+03
 SCF Done:  E(RHF) =  -355.635112755     A.U. after    8 cycles
 E2 =    -0.1224549393D+01 EUMP2 =    -0.35685966214822D+03
 SCF Done:  E(RHF) =  -355.635127493     A.U. after    9 cycles
 E2 =    -0.1224534683D+01 EUMP2 =    -0.35685966217572D+03
 SCF Done:  E(RHF) =  -355.635126033     A.U. after    7 cycles
 E2 =    -0.1224536357D+01 EUMP2 =    -0.35685966239045D+03
 SCF Done:  E(RHF) =  -355.635123234     A.U. after    7 cycles
 E2 =    -0.1224539259D+01 EUMP2 =    -0.35685966249275D+03
 SCF Done:  E(RHF) =  -355.635123207     A.U. after    8 cycles
 E2 =    -0.1224539363D+01 EUMP2 =    -0.35685966257038D+03
 Optimization completed.
    -- Stationary point found.
 Normal termination of Gaussian 16 at Thu Mar 20 14:47:22 2025.

 ----------------------------------------------------------------------
 #N Geom=AllCheck Guess=TCheck SCRF=Check GenChk RMP2(FC)/Aug-CC-pVTZ F
 req
 ----------------------------------------------------------------------

 Structure from the checkpoint file:  "/scr/Gau-55632.chk"
 ----
 blah
 ----
 Charge =  0 Multiplicity = 1

                         Standard orientation:
 ---------------------------------------------------------------------
 Center     Atomic      Atomic             Coordinates (Angstroms)
 Number     Number       Type             X           Y           Z
 ---------------------------------------------------------------------
      1          8           0        0.097181   -1.070842   -0.011292
      2          7           0        0.852308    0.077388    0.002333
      3          8           0        2.044925   -0.103222    0.019534
      4          8           0        0.244825    1.138029   -0.004613
      5          1           0       -0.842918   -0.744383   -0.020904
      6          8           0       -2.384158   -0.028579   -0.080453
      7          1           0       -2.086938    0.883954    0.026658
      8          1           0       -3.058487   -0.164374    0.592501
 ---------------------------------------------------------------------

 SCF Done:  E(RHF) =  -355.635123207     A.U. after    1 cycles
 E2 =    -0.1224539349D+01 EUMP2 =    -0.35685966255632D+03
 E2 =    -0.1224539349D+01 EUMP2 =    -0.35685966255632D+03
 E2 =    -0.1224539794D+01 EUMP2 =    -0.35685966249591D+03
 E2 =    -0.1224539794D+01 EUMP2 =    -0.35685966249591D+03
 E2 =    -0.1224539507D+01 EUMP2 =    -0.35685966254239D+03
 E2 =    -0.1224539507D+01 EUMP2 =    -0.35685966254239D+03
 E2 =    -0.1224551960D+01 EUMP2 =    -0.35685966249961D+03
 E2 =    -0.1224551960D+01 EUMP2 =    -0.35685966249961D+03
 E2 =    -0.1224527472D+01 EUMP2 =    -0.35685966242006D+03
 E2 =    -0.1224527472D+01 EUMP2 =    -0.35685966242006D+03
 E2 =    -0.1224531166D+01 EUMP2 =    -0.35685966244500D+03
 SCF Done:  E(RHF) =  -355.635012998     A.U. after    9 cycles
 E2 =    -0.1224631878D+01 EUMP2 =    -0.35685964487547D+03
 E2 =    -0.1224631878D+01 EUMP2 =    -0.35685964487547D+03
 SCF Done:  E(RHF) =  -355.635189690     A.U. after    9 cycles
 E2 =    -0.1224455038D+01 EUMP2 =    -0.35685964472787D+03
 E2 =    -0.1224455038D+01 EUMP2 =    -0.35685964472787D+03
 SCF Done:  E(RHF) =  -355.634962610     A.U. after    9 cycles
 E2 =    -0.1224676820D+01 EUMP2 =    -0.35685963943034D+03
 E2 =    -0.1224676820D+01 EUMP2 =    -0.35685963943034D+03
 SCF Done:  E(RHF) =  -355.635246559     A.U. after    9 cycles
 E2 =    -0.1224394500D+01 EUMP2 =    -0.35685964105862D+03
 E2 =    -0.1224394500D+01 EUMP2 =    -0.35685964105862D+03
 SCF Done:  E(RHF) =  -355.635523192     A.U. after    9 cycles
 E2 =    -0.1224063694D+01 EUMP2 =    -0.35685958688658D+03
 E2 =    -0.1224063694D+01 EUMP2 =    -0.35685958688658D+03
 SCF Done:  E(RHF) =  -355.634578690     A.U. after    9 cycles
 E2 =    -0.1225013864D+01 EUMP2 =    -0.35685959255411D+03
 E2 =    -0.1225013864D+01 EUMP2 =    -0.35685959255411D+03
 SCF Done:  E(RHF) =  -355.634471257     A.U. after    8 cycles
 E2 =    -0.1225095465D+01 EUMP2 =    -0.35685956672188D+03
 E2 =    -0.1225095465D+01 EUMP2 =    -0.35685956672188D+03
 SCF Done:  E(RHF) =  -355.635578424     A.U. after    8 cycles
 E2 =    -0.1223986440D+01 EUMP2 =    -0.35685956486395D+03
 E2 =    -0.1223986440D+01 EUMP2 =    -0.35685956486395D+03
 SCF Done:  E(RHF) =  -355.635132096     A.U. after    8 cycles
 E2 =    -0.1224426098D+01 EUMP2 =    -0.35685955819366D+03
 E2 =    -0.1224426098D+01 EUMP2 =    -0.35685955819366D+03
 SCF Done:  E(RHF) =  -355.634908137     A.U. after    8 cycles
 E2 =    -0.1224651738D+01 EUMP2 =    -0.35685955987593D+03
 E2 =    -0.1224651738D+01 EUMP2 =    -0.35685955987593D+03

 Alpha  occ. eigenvalues --  -20.66547 -20.63095 -20.62598 -20.61550 -15.92542
 Alpha  occ. eigenvalues --   -1.66961  -1.44322  -1.42612  -1.40033  -0.94291
 Alpha  occ. eigenvalues --   -0.81711  -0.77594  -0.77501  -0.76539  -0.68786
 Alpha  occ. eigenvalues --   -0.62937  -0.56314  -0.55741  -0.53504  -0.51711
 Alpha  occ. eigenvalues --   -0.48568
 Alpha virt. eigenvalues --    0.01857   0.04567   0.05142   0.08400   0.10335
 Alpha virt. eigenvalues --    0.11503   0.12368   0.13461   0.15042   0.15928
 Alpha virt. eigenvalues --    0.16555   0.17868   0.17986   0.18834   0.19540

 Mulliken charges:
               1
     1  O   -0.367223
     2  N    0.856052
     3  O   -0.467595
     4  O   -0.419854
     5  H    0.305727
     6  O   -0.345286
     7  H    0.232323
     8  H    0.205856
 Sum of Mulliken charges =   0.00000

 Dipole moment (field-independent basis, Debye):
    X=             -3.8345    Y=              0.4425    Z=              1.2213  Tot=              4.0486
 Quadrupole moment (field-independent basis, Debye-Ang):
   XX=            -25.0450   YY=            -30.8065   ZZ=            -28.0842
   XY=             -0.8674   XZ=             -4.2497   YZ=             -0.1978

  Exact polarizability:      47.191      -2.252      36.993      -0.371      -0.079      24.565
 Approx polarizability:      35.637      -3.073      31.370      -0.500      -0.030      21.866

                      1                      2                      3
                      A                      A                      A
 Frequencies --     75.3780               120.5328               185.9605
 Red. masses --      7.9220                 3.6849                 1.1096
 Frc consts  --      0.0265                 0.0315                 0.0226
 IR Inten    --      1.8687                17.7880                59.8025

                      4                      5                      6
                      A                      A                      A
 Frequencies --    222.2446               310.0501               433.7916
 Red. masses --      4.9891                 1.2615                 1.2191
 Frc consts  --      0.1452                 0.0714                 0.1352
 IR Inten    --     28.1393               154.0887                98.1830

                      7                      8                      9
                      A                      A                      A
 Frequencies --    648.8862               695.9454               787.0572
 Red. masses --      5.7716                13.7784                12.3466
 Frc consts  --      1.4318                 3.9319                 4.5062
 IR Inten    --      2.2945                 2.0586                16.3661

                     10                     11                     12
                      A                      A                      A
 Frequencies --    869.9178               952.5984              1330.6004
 Red. masses --      1.0680                14.7059                14.6720
 Frc consts  --      0.4762                 7.8625                15.3051
 IR Inten    --     98.1505               151.4597               264.6150

                     13                     14                     15
                      A                      A                      A
 Frequencies --   1502.5285              1621.0902              1817.1707
 Red. masses --      1.2420                 1.0998                 5.5896
 Frc consts  --      1.6520                 1.7028                10.8749
 IR Inten    --    107.6289               126.1628               254.7811

                     16                     17                     18
                      A                      A                      A
 Frequencies --   3282.5706              3783.8618              3913.7691
 Red. masses --      1.0709                 1.0458                 1.0809
 Frc consts  --      6.7987                 8.8217                 9.7549
 IR Inten    --   1027.1350                26.6013               130.8329

 - Thermochemistry -
 -------------------
 Temperature   298.150 Kelvin.  Pressure   1.00000 Atm.
 Atom     1 has atomic number  8 and mass  15.99491

 Molecular mass:    81.00621 amu.
 Principal axes and moments of inertia in atomic units:
                           1         2         3
     Eigenvalues --   146.90272 655.82488 799.56120
           X            0.99993  -0.00498  -0.01027
           Y            0.00497   0.99999  -0.00126
           Z            0.01028   0.00121   0.99995
 This molecule is an asymmetric top.
 Rotational symmetry number  1.
 Rotational temperatures (Kelvin)      0.58960     0.13207     0.10833
 Rotational constants (GHZ):          12.28528     2.75186     2.25716
 Zero-point vibrational energy     134902.6 (Joules/Mol)
                                   32.24250 (Kcal/Mol)
 Warning -- explicit consideration of   6 degrees of freedom as
           vibrations may cause significant error
 Vibrational temperatures:    108.45   173.42   267.56   319.76   446.09
          (Kelvin)            624.13   933.60  1001.31  1132.40  1251.62
                             1370.58  1914.44  2161.80  2332.39  2614.50
                             4722.89  5444.13  5631.04

 Zero-point correction=                           0.051382 (Hartree/Particle)
 Thermal correction to Energy=                    0.057944
 Thermal correction to Enthalpy=                  0.058888
 Thermal correction to Gibbs Free Energy=         0.021034
 Sum of electronic and zero-point Energies=           -356.808281
 Sum of electronic and thermal Energies=              -356.801719
 Sum of electronic and thermal Enthalpies=            -356.800775
 Sum of electronic and thermal Free Energies=         -356.838629

                     E (Thermal)             CV                S
                      KCal/Mol        Cal/Mol-Kelvin    Cal/Mol-Kelvin
 Total                   36.360             20.271             79.671
 Electronic               0.000              0.000              0.000
 Translational            0.889              2.981             39.090
 Rotational               0.889              2.981             25.846
 Vibrational             34.583             14.309             14.735
 Vibration     1          0.599              1.965              4.008
 Vibration     2          0.609              1.932              3.092
 Vibration     3          0.632              1.859              2.268
 Vibration     4          0.648              1.807              1.941
 Vibration     5          0.699              1.655              1.362
 Vibration     6          0.795              1.397              0.846

 ## DEPERTURBED TRANSITIONS MOMENTS ##

 Electric dipole : Fundamental Bands
 ------------------------------------------------------------------------

 ## AFTER VARIATIONAL CORRECTION

 Electric dipole : Fundamental Bands
 ------------------------------------------------------------------------

                           ! Non-Optimized Parameters !
 Normal termination of Gaussian 16 at Fri Mar 21 06:50:46 2025.
