 Gaussian 16, Revision C.01,
 Gaussian 16:  EM64L-G16RevC.01  3-Jul-2019

 ----------------------------------------------
 # MP2/aug-cc-pVDZ opt freq=(vibrot,anharmonic)
 ----------------------------------------------

 ----
 blah
 ----
 Symbolic Z-matrix:
 Charge =  0 Multiplicity = 2

 SCF Done:  E(UHF) =  -226.251549832     A.U. after   22 cycles
 E2 =    -0.5930520677D+00 EUMP2 =    -0.22684460189960D+03
 Optimization completed.
    -- Stationary point found.

 1\1\GINC-N3040\FOpt\UMP2-FC\Aug-CC-pVDZ\H3O3(2)\GDS001\20-Mar-2025\0\\
 # MP2/aug-cc-pVDZ opt freq=(vibrot,anharmonic)\\blah\\0,2\O,-1.138344,
 0.64844,0.014941\O,-0.956784,-0.654031,0.004436\H,0.03265,-0.740219,-0
 .003926\O,1.64953,-0.006872,-0.093362\H,2.278715,-0.037911,0.63921\H,1
 .253426,0.877829,-0.043405\\Version=EM64L-G16RevC.01\State=2-A\HF=-226
 .2515498\MP2=-226.8446019\PUHF=-226.2563418\PMP2-0=-226.8475778\S2=0.7
 63951\S2-1=0.753315\S2A=0.750136\RMSD=3.060e-09\RMSF=3.060e-07\Dipole=
 1.1549597,0.0867794,0.4816608\PG=C01 [X(H3O3)]\\@

 Normal termination of Gaussian 16 at Thu Mar 20 21:44:22 2025.

 ----------------------------------------------------------------------
 #N Geom=AllCheck Guess=TCheck SCRF=Check GenChk UMP2(FC)/Aug-CC-pVDZ F
 req
 ----------------------------------------------------------------------

 Structure from the checkpoint file:  "/scr/Gau-84711.chk"
 ----
 blah
 ----
 Charge =  0 Multiplicity = 2

                         Standard orientation:
 ---------------------------------------------------------------------
 Center     Atomic      Atomic             Coordinates (Angstroms)
 Number     Number       Type             X           Y           Z
 ---------------------------------------------------------------------
      1          8           0       -1.138344    0.648440    0.014941
      2          8           0       -0.956784   -0.654031    0.004436
      3          1           0        0.032650   -0.740219   -0.003926
      4          8           0        1.649530   -0.006872   -0.093362
      5          1           0        2.278715   -0.037911    0.639210
      6          1           0        1.253426    0.877829   -0.043405
 ---------------------------------------------------------------------

 SCF Done:  E(UHF) =  -226.251549832     A.U. after    1 cycles
 E2 =    -0.5930520653D+00 EUMP2 =    -0.22684460189722D+03
 E2 =    -0.5930520653D+00 EUMP2 =    -0.22684460189722D+03
 SCF Done:  E(UHF) =  -226.251567273     A.U. after   15 cycles
 E2 =    -0.5930345191D+00 EUMP2 =    -0.22684460179178D+03
 E2 =    -0.5930345191D+00 EUMP2 =    -0.22684460179178D+03
 SCF Done:  E(UHF) =  -226.251531168     A.U. after   15 cycles
 E2 =    -0.5930706369D+00 EUMP2 =    -0.22684460180490D+03
 E2 =    -0.5930706369D+00 EUMP2 =    -0.22684460180490D+03
 SCF Done:  E(UHF) =  -226.251560501     A.U. after   15 cycles
 E2 =    -0.5930411478D+00 EUMP2 =    -0.22684460164866D+03
 E2 =    -0.5930411478D+00 EUMP2 =    -0.22684460164866D+03
 SCF Done:  E(UHF) =  -226.251534228     A.U. after   15 cycles
 E2 =    -0.5930674192D+00 EUMP2 =    -0.22684460164745D+03
 E2 =    -0.5930674192D+00 EUMP2 =    -0.22684460164745D+03
 SCF Done:  E(UHF) =  -226.251580153     A.U. after   15 cycles
 E2 =    -0.5930212856D+00 EUMP2 =    -0.22684460143815D+03
 E2 =    -0.5930212856D+00 EUMP2 =    -0.22684460143815D+03
 SCF Done:  E(UHF) =  -226.251517351     A.U. after   15 cycles
 E2 =    -0.5930840921D+00 EUMP2 =    -0.22684460144330D+03
 E2 =    -0.5930840921D+00 EUMP2 =    -0.22684460144330D+03
 SCF Done:  E(UHF) =  -226.251545876     A.U. after   15 cycles
 E2 =    -0.5930554380D+00 EUMP2 =    -0.22684460131393D+03
 E2 =    -0.5930554380D+00 EUMP2 =    -0.22684460131393D+03
 SCF Done:  E(UHF) =  -226.251548130     A.U. after   15 cycles
 E2 =    -0.5930531699D+00 EUMP2 =    -0.22684460129949D+03
 E2 =    -0.5930531699D+00 EUMP2 =    -0.22684460129949D+03
 E2 =    -0.5930220388D+00 EUMP2 =    -0.22684460046801D+03
 SCF Done:  E(UHF) =  -226.251423251     A.U. after   17 cycles
 E2 =    -0.5931618756D+00 EUMP2 =    -0.22684458512633D+03
 E2 =    -0.5931618756D+00 EUMP2 =    -0.22684458512633D+03
 SCF Done:  E(UHF) =  -226.251632996     A.U. after   17 cycles
 E2 =    -0.5929522203D+00 EUMP2 =    -0.22684458521623D+03
 E2 =    -0.5929522203D+00 EUMP2 =    -0.22684458521623D+03
 SCF Done:  E(UHF) =  -226.251484591     A.U. after   16 cycles
 E2 =    -0.5930994597D+00 EUMP2 =    -0.22684458405040D+03
 E2 =    -0.5930994597D+00 EUMP2 =    -0.22684458405040D+03
 SCF Done:  E(UHF) =  -226.251570494     A.U. after   16 cycles
 E2 =    -0.5930136541D+00 EUMP2 =    -0.22684458414771D+03
 E2 =    -0.5930136541D+00 EUMP2 =    -0.22684458414771D+03
 SCF Done:  E(UHF) =  -226.250799928     A.U. after   18 cycles
 E2 =    -0.5937274550D+00 EUMP2 =    -0.22684452738270D+03
 E2 =    -0.5937274550D+00 EUMP2 =    -0.22684452738270D+03
 SCF Done:  E(UHF) =  -226.252143127     A.U. after   18 cycles
 E2 =    -0.5923801342D+00 EUMP2 =    -0.22684452326141D+03
 E2 =    -0.5923801342D+00 EUMP2 =    -0.22684452326141D+03
 SCF Done:  E(UHF) =  -226.250848954     A.U. after   14 cycles
 E2 =    -0.5936590646D+00 EUMP2 =    -0.22684450801868D+03
 E2 =    -0.5936590646D+00 EUMP2 =    -0.22684450801868D+03
 SCF Done:  E(UHF) =  -226.252056549     A.U. after   14 cycles
 E2 =    -0.5924479460D+00 EUMP2 =    -0.22684450449549D+03
 E2 =    -0.5924479460D+00 EUMP2 =    -0.22684450449549D+03
 SCF Done:  E(UHF) =  -226.251307259     A.U. after   15 cycles
 E2 =    -0.5931928180D+00 EUMP2 =    -0.22684450007659D+03
 E2 =    -0.5931928180D+00 EUMP2 =    -0.22684450007659D+03
 SCF Done:  E(UHF) =  -226.251587488     A.U. after   15 cycles
 E2 =    -0.5929102616D+00 EUMP2 =    -0.22684449774923D+03
 E2 =    -0.5929102616D+00 EUMP2 =    -0.22684449774923D+03

 Alpha  occ. eigenvalues --  -20.68046 -20.65809 -20.61380  -1.57294  -1.39161
 Alpha  occ. eigenvalues --   -1.18730  -0.77763  -0.74360  -0.73806  -0.66448
 Alpha  occ. eigenvalues --   -0.62710  -0.55201  -0.50548  -0.49910
 Alpha virt. eigenvalues --    0.02832   0.05654   0.06946   0.14269   0.15833
 Alpha virt. eigenvalues --    0.18578   0.19844   0.21674   0.22417   0.23988
 Alpha virt. eigenvalues --    0.24280   0.25233   0.26687   0.29891   0.31957

  Beta  occ. eigenvalues --  -20.64847 -20.63986 -20.61392  -1.50856  -1.39156
  Beta  occ. eigenvalues --   -1.08513  -0.76813  -0.72888  -0.63851  -0.62617
  Beta  occ. eigenvalues --   -0.55177  -0.54270  -0.46495
  Beta virt. eigenvalues --    0.02841   0.05681   0.06959   0.10531   0.14681
  Beta virt. eigenvalues --    0.16128   0.18689   0.20105   0.22209   0.22891
  Beta virt. eigenvalues --    0.24347   0.25297   0.26834   0.28196   0.30182

 Mulliken charges and spin densities:
               1          2
     1  O   -0.183142   0.679949
     2  O   -0.114957   0.360315
     3  H    0.314162  -0.038140
     4  O   -0.346169   0.000996
     5  H    0.138404   0.000187
     6  H    0.191704  -0.003307
 Sum of Mulliken charges =  -0.00000   1.00000

 Dipole moment (field-independent basis, Debye):
    X=              2.9237    Y=              0.2279    Z=              1.2168  Tot=              3.1750
 Quadrupole moment (field-independent basis, Debye-Ang):
   XX=            -18.1790   YY=            -17.1976   ZZ=            -18.0510
   XY=              1.1569   XZ=              3.3306   YZ=             -0.1719

  Exact polarizability:      23.984      -1.691      26.334       0.447      -0.020      17.573
 Approx polarizability:      16.282      -1.373      19.866       0.636       0.064      14.319

                      1                      2                      3
                      A                      A                      A
 Frequencies --    117.7915               189.6928               258.5624
 Red. masses --      3.2315                 1.0803                 2.9111
 Frc consts  --      0.0264                 0.0229                 0.1147
 IR Inten    --     37.8785                67.8403                24.0634

                      4                      5                      6
                      A                      A                      A
 Frequencies --    294.1316               461.0585               689.1114
 Red. masses --      1.4832                 1.3051                 1.0643
 Frc consts  --      0.0756                 0.1635                 0.2978
 IR Inten    --    135.3844                88.3547               145.0565

                      7                      8                      9
                      A                      A                      A
 Frequencies --   1264.0691              1573.0842              1622.7511
 Red. masses --     13.7301                 1.1085                 1.0798
 Frc consts  --     12.9260                 1.6162                 1.6753
 IR Inten    --     88.3322                80.8684                53.8344

                     10                     11                     12
                      A                      A                      A
 Frequencies --   3365.5709              3761.6618              3903.4275
 Red. masses --      1.0671                 1.0471                 1.0796
 Frc consts  --      7.1218                 8.7299                 9.6916
 IR Inten    --    541.7816                25.8006               106.3136

 - Thermochemistry -
 -------------------
 Temperature   298.150 Kelvin.  Pressure   1.00000 Atm.
 Atom     1 has atomic number  8 and mass  15.99491

 Molecular mass:    51.00822 amu.
 Principal axes and moments of inertia in atomic units:
                           1         2         3
     Eigenvalues --    55.03194 307.20794 358.48290
           X            0.99976   0.01405   0.01681
           Y           -0.01401   0.99990  -0.00286
           Z           -0.01685   0.00263   0.99985
 This molecule is an asymmetric top.
 Rotational symmetry number  1.
 Rotational temperatures (Kelvin)      1.57388     0.28194     0.24161
 Rotational constants (GHZ):          32.79443     5.87466     5.03439
 Zero-point vibrational energy     104678.7 (Joules/Mol)
                                   25.01881 (Kcal/Mol)
 Warning -- explicit consideration of   5 degrees of freedom as
           vibrations may cause significant error
 Vibrational temperatures:    169.48   272.93   372.01   423.19   663.36
          (Kelvin)            991.48  1818.71  2263.32  2334.78  4842.31
                             5412.19  5616.16

 Zero-point correction=                           0.039870 (Hartree/Particle)
 Thermal correction to Energy=                    0.045274
 Thermal correction to Enthalpy=                  0.046218
 Thermal correction to Gibbs Free Energy=         0.011996
 Sum of electronic and zero-point Energies=           -226.804732
 Sum of electronic and thermal Energies=              -226.799328
 Sum of electronic and thermal Enthalpies=            -226.798384
 Sum of electronic and thermal Free Energies=         -226.832606

                     E (Thermal)             CV                S
                      KCal/Mol        Cal/Mol-Kelvin    Cal/Mol-Kelvin
 Total                   28.410             15.643             72.027
 Electronic               0.000              0.000              1.377
 Translational            0.889              2.981             37.711
 Rotational               0.889              2.981             23.320
 Vibrational             26.632              9.681              9.618
 Vibration     1          0.608              1.935              3.136
 Vibration     2          0.633              1.854              2.231
 Vibration     3          0.667              1.748              1.671
 Vibration     4          0.689              1.685              1.450
 Vibration     5          0.819              1.336              0.763

 ## DEPERTURBED TRANSITIONS MOMENTS ##

 Electric dipole : Fundamental Bands
 ------------------------------------------------------------------------

 ## AFTER VARIATIONAL CORRECTION

 Electric dipole : Fundamental Bands
 ------------------------------------------------------------------------

 Optimization completed.
    -- Stationary point found.

 1\1\GINC-N3040\Freq\UMP2-FC\Aug-CC-pVDZ\H3O3(2)\GDS001\20-Mar-2025\0\\
 #N Geom=AllCheck Guess=TCheck SCRF=Check GenChk UMP2(FC)/Aug-CC-pVDZ F
 req\\blah\\0,2\O,-1.138344,0.64844,0.014941\O,-0.956784,-0.654031,0.00
 4436\H,0.03265,-0.740219,-0.003926\O,1.64953,-0.006872,-0.093362\H,2.2
 78715,-0.037911,0.63921\H,1.253426,0.877829,-0.043405\\Version=EM64L-G
 16RevC.01\State=2-A\HF=-226.2515498\MP2=-226.8446019\PUHF=-226.2563418
 \PMP2-0=-226.8475778\S2=0.763951\S2-1=0.753315\S2A=0.750136\RMSD=3.482
 e-10\RMSF=3.048e-07\ZeroPoint=0.03987\Thermal=0.045274\ETot=-226.79932

 Normal termination of Gaussian 16 at Thu Mar 20 22:06:34 2025.
