 Gaussian 16, Revision A.03,
 Gaussian 16:  ES64L-G16RevA.03 25-Dec-2016

 -----------------------------------------------
 # UMP2/aug-cc-pVTZ opt freq=(vibrot,anharmonic)
 -----------------------------------------------

 ----
 bleh
 ----
 Symbolic Z-matrix:
 Charge =  0 Multiplicity = 2

 SCF Done:  E(UHF) =  -226.306978925     A.U. after   22 cycles
 E2 =    -0.7295534993D+00 EUMP2 =    -0.22703653242458D+03
 SCF Done:  E(UHF) =  -226.307579914     A.U. after   18 cycles
 E2 =    -0.7290541118D+00 EUMP2 =    -0.22703663402558D+03
 SCF Done:  E(UHF) =  -226.307769510     A.U. after   17 cycles
 E2 =    -0.7288691516D+00 EUMP2 =    -0.22703663866192D+03
 SCF Done:  E(UHF) =  -226.307711903     A.U. after   16 cycles
 E2 =    -0.7289314141D+00 EUMP2 =    -0.22703664331673D+03
 SCF Done:  E(UHF) =  -226.307646698     A.U. after   15 cycles
 E2 =    -0.7289995977D+00 EUMP2 =    -0.22703664629521D+03
 SCF Done:  E(UHF) =  -226.307558796     A.U. after   15 cycles
 E2 =    -0.7290892873D+00 EUMP2 =    -0.22703664808352D+03
 SCF Done:  E(UHF) =  -226.307489874     A.U. after   15 cycles
 E2 =    -0.7291592920D+00 EUMP2 =    -0.22703664916557D+03
 SCF Done:  E(UHF) =  -226.307464752     A.U. after   14 cycles
 E2 =    -0.7291848664D+00 EUMP2 =    -0.22703664961883D+03
 SCF Done:  E(UHF) =  -226.307444677     A.U. after   14 cycles
 E2 =    -0.7292058103D+00 EUMP2 =    -0.22703665048683D+03
 SCF Done:  E(UHF) =  -226.307450372     A.U. after   14 cycles
 E2 =    -0.7292011816D+00 EUMP2 =    -0.22703665155323D+03
 E2 =    -0.7291519695D+00 EUMP2 =    -0.22703665222450D+03
 Optimization completed.
    -- Stationary point found.

 1\1\GINC-N2398\FOpt\UMP2-FC\Aug-CC-pVTZ\H3O3(2)\GDS001\30-Nov-2021\0\\
 # UMP2/aug-cc-pVTZ opt freq=(vibrot,anharmonic)\\bleh\\0,2\O,-1.107483
 1556,0.6535316872,0.0111206765\O,-0.9503229642,-0.6436827656,0.0013644
 119\H,0.0337004289,-0.7506816938,-0.0019243413\O,1.6392811531,-0.00779
 92686,-0.0881291367\H,2.2808069195,-0.0271355957,0.6282011406\H,1.2232
 106182,0.8630036364,-0.032738751\\Version=ES64L-G16RevA.03\State=2-A\H
 F=-226.3075003\MP2=-227.0366522\PUHF=-226.3127078\PMP2-0=-227.0398702\
 S2=0.764582\S2-1=0.753372\S2A=0.750148\RMSD=3.505e-09\RMSF=3.910e-05\D

 Normal termination of Gaussian 16 at Tue Nov 30 12:56:09 2021.

 ----------------------------------------------------------------------
 #N Geom=AllCheck Guess=TCheck SCRF=Check GenChk UMP2(FC)/Aug-CC-pVTZ F
 req
 ----------------------------------------------------------------------

 Structure from the checkpoint file:  "/gscratch/scrubbed/gds001/Gau-313621.chk"
 ----
 bleh
 ----
 Charge =  0 Multiplicity = 2

                         Standard orientation:
 ---------------------------------------------------------------------
 Center     Atomic      Atomic             Coordinates (Angstroms)
 Number     Number       Type             X           Y           Z
 ---------------------------------------------------------------------
      1          8           0       -1.115007    0.648862    0.013637
      2          8           0       -0.956792   -0.648236    0.005636
      3          1           0        0.027307   -0.754423   -0.000288
      4          8           0        1.632013   -0.010356   -0.092352
      5          1           0        2.275602   -0.027940    0.622171
      6          1           0        1.215376    0.860195   -0.037251
 ---------------------------------------------------------------------

 E2 =    -0.7291519680D+00 EUMP2 =    -0.22703665222304D+03
 E2 =    -0.7291519680D+00 EUMP2 =    -0.22703665222304D+03
 E2 =    -0.7291280441D+00 EUMP2 =    -0.22703665214137D+03
 E2 =    -0.7291280441D+00 EUMP2 =    -0.22703665214137D+03
 E2 =    -0.7291769307D+00 EUMP2 =    -0.22703665208989D+03
 E2 =    -0.7291769307D+00 EUMP2 =    -0.22703665208989D+03
 E2 =    -0.7291381972D+00 EUMP2 =    -0.22703665189754D+03
 E2 =    -0.7291381972D+00 EUMP2 =    -0.22703665189754D+03
 E2 =    -0.7291698510D+00 EUMP2 =    -0.22703665196451D+03
 SCF Done:  E(UHF) =  -226.307355598     A.U. after   17 cycles
 E2 =    -0.7292805666D+00 EUMP2 =    -0.22703663616467D+03
 E2 =    -0.7292805666D+00 EUMP2 =    -0.22703663616467D+03
 SCF Done:  E(UHF) =  -226.307601742     A.U. after   17 cycles
 E2 =    -0.7290333921D+00 EUMP2 =    -0.22703663513408D+03
 E2 =    -0.7290333921D+00 EUMP2 =    -0.22703663513408D+03
 SCF Done:  E(UHF) =  -226.307432185     A.U. after   15 cycles
 E2 =    -0.7292014464D+00 EUMP2 =    -0.22703663363111D+03
 E2 =    -0.7292014464D+00 EUMP2 =    -0.22703663363111D+03
 SCF Done:  E(UHF) =  -226.307523667     A.U. after   15 cycles
 E2 =    -0.7291113164D+00 EUMP2 =    -0.22703663498337D+03
 E2 =    -0.7291113164D+00 EUMP2 =    -0.22703663498337D+03
 SCF Done:  E(UHF) =  -226.306770040     A.U. after   13 cycles
 E2 =    -0.7298064350D+00 EUMP2 =    -0.22703657647518D+03
 E2 =    -0.7298064350D+00 EUMP2 =    -0.22703657647518D+03
 SCF Done:  E(UHF) =  -226.308073467     A.U. after   12 cycles
 E2 =    -0.7285008256D+00 EUMP2 =    -0.22703657429218D+03
 E2 =    -0.7285008256D+00 EUMP2 =    -0.22703657429218D+03
 SCF Done:  E(UHF) =  -226.306853112     A.U. after   14 cycles
 E2 =    -0.7297051189D+00 EUMP2 =    -0.22703655823050D+03
 E2 =    -0.7297051189D+00 EUMP2 =    -0.22703655823050D+03
 SCF Done:  E(UHF) =  -226.307951810     A.U. after   14 cycles
 E2 =    -0.7286018619D+00 EUMP2 =    -0.22703655367150D+03
 E2 =    -0.7286018619D+00 EUMP2 =    -0.22703655367150D+03
 SCF Done:  E(UHF) =  -226.307249219     A.U. after   14 cycles
 E2 =    -0.7293009034D+00 EUMP2 =    -0.22703655012190D+03
 E2 =    -0.7293009034D+00 EUMP2 =    -0.22703655012190D+03
 SCF Done:  E(UHF) =  -226.307545031     A.U. after   14 cycles
 E2 =    -0.7290022980D+00 EUMP2 =    -0.22703654732894D+03
 E2 =    -0.7290022980D+00 EUMP2 =    -0.22703654732894D+03

 Alpha  occ. eigenvalues --  -20.67153 -20.65144 -20.60168  -1.57392  -1.39002
 Alpha  occ. eigenvalues --   -1.18276  -0.78097  -0.74685  -0.73815  -0.66545
 Alpha  occ. eigenvalues --   -0.62648  -0.55218  -0.50530  -0.49729
 Alpha virt. eigenvalues --    0.02310   0.04695   0.05819   0.11279   0.13009
 Alpha virt. eigenvalues --    0.14403   0.15611   0.17433   0.17886   0.19418
 Alpha virt. eigenvalues --    0.19586   0.20953   0.22067   0.24455   0.26347

  Beta  occ. eigenvalues --  -20.64144 -20.63204 -20.60181  -1.50979  -1.38999
  Beta  occ. eigenvalues --   -1.08070  -0.77163  -0.72879  -0.64023  -0.62565
  Beta  occ. eigenvalues --   -0.55282  -0.54360  -0.46407
  Beta virt. eigenvalues --    0.02318   0.04714   0.05832   0.10182   0.11906
  Beta virt. eigenvalues --    0.13181   0.14495   0.15695   0.17904   0.18094
  Beta virt. eigenvalues --    0.19455   0.20991   0.22144   0.23089   0.24778

 Mulliken charges and spin densities:
               1          2
     1  O   -0.212453   0.678743
     2  O   -0.158698   0.344658
     3  H    0.314748  -0.022229
     4  O   -0.392846   0.000696
     5  H    0.194478  -0.000050
     6  H    0.254771  -0.001818
 Sum of Mulliken charges =  -0.00000   1.00000

 Dipole moment (field-independent basis, Debye):
    X=              2.8525    Y=              0.1660    Z=              1.2014  Tot=              3.0997
 Quadrupole moment (field-independent basis, Debye-Ang):
   XX=            -17.7995   YY=            -17.1074   ZZ=            -17.8732
   XY=              1.1487   XZ=              3.2626   YZ=             -0.1435

  Exact polarizability:  24.117  -1.421  26.728   0.375  -0.007  18.018
 Approx polarizability:  16.347  -1.232  19.996   0.592   0.085  14.518

                      1                      2                      3
                      A                      A                      A
 Frequencies --    124.5371               206.3892               257.8178
 Red. masses --      3.0977                 1.0858                 2.9572
 Frc consts  --      0.0283                 0.0273                 0.1158
 IR Inten    --     43.0241                69.0703                26.5056

                      4                      5                      6
                      A                      A                      A
 Frequencies --    294.4750               471.9938               684.3531
 Red. masses --      1.4839                 1.3059                 1.0646
 Frc consts  --      0.0758                 0.1714                 0.2938
 IR Inten    --    132.9911                88.2671               140.9780

                      7                      8                      9
                      A                      A                      A
 Frequencies --   1289.5880              1566.0007              1628.1770
 Red. masses --     13.2629                 1.1136                 1.0802
 Frc consts  --     12.9954                 1.6090                 1.6872
 IR Inten    --     84.5514                78.9523                62.1745

                     10                     11                     12
                      A                      A                      A
 Frequencies --   3371.3000              3774.1098              3913.1697
 Red. masses --      1.0673                 1.0473                 1.0792
 Frc consts  --      7.1470                 8.7893                 9.7362
 IR Inten    --    531.5580                33.9060               116.5200

 - Thermochemistry -
 -------------------
 Temperature   298.150 Kelvin.  Pressure   1.00000 Atm.
 Atom     1 has atomic number  8 and mass  15.99491

 Molecular mass:    51.00822 amu.
 Principal axes and moments of inertia in atomic units:
                           1         2         3
     Eigenvalues --    54.51264 300.46191 351.39472
           X            0.99976   0.01396   0.01680
           Y           -0.01393   0.99990  -0.00223
           Z           -0.01683   0.00199   0.99986
 This molecule is an asymmetric top.
 Rotational symmetry number  1.
 Rotational temperatures (Kelvin)      1.58888     0.28827     0.24649
 Rotational constants (GHZ):          33.10684     6.00656     5.13594
 Zero-point vibrational energy     105163.2 (Joules/Mol)
                                   25.13460 (Kcal/Mol)
 Warning -- explicit consideration of   5 degrees of freedom as
           vibrations may cause significant error
 Vibrational temperatures:    179.18   296.95   370.94   423.68   679.09
          (Kelvin)            984.63  1855.43  2253.13  2342.58  4850.55
                             5430.10  5630.18

 Zero-point correction=                           0.040055 (Hartree/Particle)
 Thermal correction to Energy=                    0.045412
 Thermal correction to Enthalpy=                  0.046357
 Thermal correction to Gibbs Free Energy=         0.012295
 Sum of electronic and zero-point Energies=           -226.996598
 Sum of electronic and thermal Energies=              -226.991240
 Sum of electronic and thermal Enthalpies=            -226.990296
 Sum of electronic and thermal Free Energies=         -227.024357

                     E (Thermal)             CV                S
                      KCal/Mol        Cal/Mol-Kelvin    Cal/Mol-Kelvin
 Total                   28.497             15.586             71.688
 Electronic               0.000              0.000              1.377
 Translational            0.889              2.981             37.711
 Rotational               0.889              2.981             23.269
 Vibrational             26.719              9.625              9.330
 Vibration     1          0.610              1.928              3.029
 Vibration     2          0.641              1.831              2.075
 Vibration     3          0.667              1.750              1.677
 Vibration     4          0.689              1.684              1.448
 Vibration     5          0.829              1.312              0.732

 ## DEPERTURBED TRANSITIONS MOMENTS ##

 Electric dipole : Fundamental Bands
 ------------------------------------------------------------------------

 ## AFTER VARIATIONAL CORRECTION

 Electric dipole : Fundamental Bands
 ------------------------------------------------------------------------

 Optimization completed.
    -- Stationary point found.

 1\1\GINC-N2398\Freq\UMP2-FC\Aug-CC-pVTZ\H3O3(2)\GDS001\30-Nov-2021\0\\
 #N Geom=AllCheck Guess=TCheck SCRF=Check GenChk UMP2(FC)/Aug-CC-pVTZ F
 req\\bleh\\0,2\O,-1.1074831556,0.6535316872,0.0111206765\O,-0.95032296
 42,-0.6436827656,0.0013644119\H,0.0337004289,-0.7506816938,-0.00192434
 13\O,1.6392811531,-0.0077992686,-0.0881291367\H,2.2808069195,-0.027135
 5957,0.6282011406\H,1.2232106182,0.8630036364,-0.032738751\\Version=ES
 64L-G16RevA.03\State=2-A\HF=-226.3075003\MP2=-227.0366522\PUHF=-226.31
 27078\PMP2-0=-227.0398702\S2=0.764582\S2-1=0.753372\S2A=0.750148\RMSD=

 Normal termination of Gaussian 16 at Tue Nov 30 18:34:00 2021.
