 Gaussian 16, Revision C.01,
 Gaussian 16:  EM64L-G16RevC.01  3-Jul-2019

 ----------------------------------------------
 # MP2/aug-cc-pVDZ opt freq=(vibrot,anharmonic)
 ----------------------------------------------

 ----
 blah
 ----
 Symbolic Z-matrix:
 Charge =  0 Multiplicity = 1

 SCF Done:  E(RHF) =  -228.961615948     A.U. after   13 cycles
 E2 =    -0.7070220533D+00 EUMP2 =    -0.22966863800133D+03
 SCF Done:  E(RHF) =  -228.962391909     A.U. after   12 cycles
 E2 =    -0.7075882799D+00 EUMP2 =    -0.22966998018926D+03
 SCF Done:  E(RHF) =  -228.961810378     A.U. after   13 cycles
 E2 =    -0.7077325058D+00 EUMP2 =    -0.22966954288426D+03
 SCF Done:  E(RHF) =  -228.963899029     A.U. after   11 cycles
 E2 =    -0.7068576052D+00 EUMP2 =    -0.22967075663413D+03
 SCF Done:  E(RHF) =  -228.964457064     A.U. after   10 cycles
 E2 =    -0.7064277557D+00 EUMP2 =    -0.22967088481960D+03
 SCF Done:  E(RHF) =  -228.964890447     A.U. after   11 cycles
 E2 =    -0.7060319374D+00 EUMP2 =    -0.22967092238427D+03
 SCF Done:  E(RHF) =  -228.964888187     A.U. after   11 cycles
 E2 =    -0.7061062313D+00 EUMP2 =    -0.22967099441860D+03
 SCF Done:  E(RHF) =  -228.964846302     A.U. after   10 cycles
 E2 =    -0.7061863029D+00 EUMP2 =    -0.22967103260439D+03
 SCF Done:  E(RHF) =  -228.964756759     A.U. after   10 cycles
 E2 =    -0.7063020861D+00 EUMP2 =    -0.22967105884469D+03
 SCF Done:  E(RHF) =  -228.964713463     A.U. after   10 cycles
 E2 =    -0.7063833189D+00 EUMP2 =    -0.22967109678154D+03
 E2 =    -0.7066620573D+00 EUMP2 =    -0.22967117433080D+03
 E2 =    -0.7066720466D+00 EUMP2 =    -0.22967118638888D+03
 E2 =    -0.7066010213D+00 EUMP2 =    -0.22967119106570D+03
 E2 =    -0.7066092782D+00 EUMP2 =    -0.22967119120054D+03
 E2 =    -0.7065868985D+00 EUMP2 =    -0.22967119095704D+03
 E2 =    -0.7066029522D+00 EUMP2 =    -0.22967119148427D+03
 Optimization completed.
    -- Stationary point found.
 Normal termination of Gaussian 16 at Fri Mar 21 14:57:04 2025.

 ----------------------------------------------------------------------
 #N Geom=AllCheck Guess=TCheck SCRF=Check GenChk RMP2(FC)/Aug-CC-pVDZ F
 req
 ----------------------------------------------------------------------

 Structure from the checkpoint file:  "/scr/Gau-98126.chk"
 ----
 blah
 ----
 Charge =  0 Multiplicity = 1

                         Standard orientation:
 ---------------------------------------------------------------------
 Center     Atomic      Atomic             Coordinates (Angstroms)
 Number     Number       Type             X           Y           Z
 ---------------------------------------------------------------------
      1          6           0       -0.964506   -0.305810   -0.000652
      2          6           0       -2.308306   -0.185583    0.000682
      3          1           0       -0.473964   -1.286261   -0.001661
      4          8           0       -0.128120    0.780215   -0.000666
      5          1           0       -2.921658   -1.086184    0.000757
      6          1           0       -2.788778    0.794472    0.001717
      7          1           0        0.791357    0.457026   -0.002021
      8          8           0        2.495457   -0.260575    0.000193
      9          1           0        3.041890   -0.042222    0.767024
     10          1           0        3.049327   -0.045592   -0.762217
 ---------------------------------------------------------------------

 E2 =    -0.7066029509D+00 EUMP2 =    -0.22967119148297D+03
 E2 =    -0.7066029509D+00 EUMP2 =    -0.22967119148297D+03
 E2 =    -0.7066044306D+00 EUMP2 =    -0.22967119145945D+03
 E2 =    -0.7066044306D+00 EUMP2 =    -0.22967119145945D+03
 SCF Done:  E(RHF) =  -228.964749716     A.U. after    9 cycles
 E2 =    -0.7063712523D+00 EUMP2 =    -0.22967112096792D+03
 E2 =    -0.7063712523D+00 EUMP2 =    -0.22967112096792D+03
 SCF Done:  E(RHF) =  -228.964287642     A.U. after    9 cycles
 E2 =    -0.7068352243D+00 EUMP2 =    -0.22967112286650D+03
 E2 =    -0.7068352243D+00 EUMP2 =    -0.22967112286650D+03
 SCF Done:  E(RHF) =  -228.964487165     A.U. after    8 cycles
 E2 =    -0.7066301606D+00 EUMP2 =    -0.22967111732519D+03
 E2 =    -0.7066301606D+00 EUMP2 =    -0.22967111732519D+03
 SCF Done:  E(RHF) =  -228.964541842     A.U. after    8 cycles
 E2 =    -0.7065750032D+00 EUMP2 =    -0.22967111684529D+03
 E2 =    -0.7065750032D+00 EUMP2 =    -0.22967111684529D+03
 SCF Done:  E(RHF) =  -228.963917033     A.U. after    9 cycles
 E2 =    -0.7071863553D+00 EUMP2 =    -0.22967110338789D+03
 E2 =    -0.7071863553D+00 EUMP2 =    -0.22967110338789D+03
 SCF Done:  E(RHF) =  -228.965076827     A.U. after    9 cycles
 E2 =    -0.7060216804D+00 EUMP2 =    -0.22967109850764D+03
 E2 =    -0.7060216804D+00 EUMP2 =    -0.22967109850764D+03
 SCF Done:  E(RHF) =  -228.963898099     A.U. after    9 cycles
 E2 =    -0.7071977060D+00 EUMP2 =    -0.22967109580532D+03
 E2 =    -0.7071977060D+00 EUMP2 =    -0.22967109580532D+03
 SCF Done:  E(RHF) =  -228.965081343     A.U. after    9 cycles
 E2 =    -0.7060111294D+00 EUMP2 =    -0.22967109247258D+03
 E2 =    -0.7060111294D+00 EUMP2 =    -0.22967109247258D+03
 SCF Done:  E(RHF) =  -228.964485805     A.U. after    8 cycles
 E2 =    -0.7066015638D+00 EUMP2 =    -0.22967108736909D+03
 E2 =    -0.7066015638D+00 EUMP2 =    -0.22967108736909D+03
 SCF Done:  E(RHF) =  -228.964484615     A.U. after    8 cycles
 E2 =    -0.7066028529D+00 EUMP2 =    -0.22967108746765D+03
 E2 =    -0.7066028529D+00 EUMP2 =    -0.22967108746765D+03

 Alpha  occ. eigenvalues --  -20.61759 -20.57010 -11.29067 -11.20615  -1.39520
 Alpha  occ. eigenvalues --   -1.37324  -1.00070  -0.77456  -0.75354  -0.72264
 Alpha  occ. eigenvalues --   -0.62829  -0.59807  -0.56185  -0.54806  -0.53787
 Alpha  occ. eigenvalues --   -0.49707  -0.32346
 Alpha virt. eigenvalues --    0.02203   0.05021   0.05220   0.05923   0.07118
 Alpha virt. eigenvalues --    0.07866   0.12663   0.13453   0.14116   0.15078
 Alpha virt. eigenvalues --    0.16427   0.18555   0.18912   0.20791   0.21639

 Mulliken charges:
               1
     1  C    0.942518
     2  C    0.371766
     3  H   -0.411994
     4  O   -0.543422
     5  H   -0.267764
     6  H   -0.289686
     7  H    0.224084
     8  O   -0.342454
     9  H    0.149483
    10  H    0.167470
 Sum of Mulliken charges =  -0.00000

 Dipole moment (field-independent basis, Debye):
    X=              4.1512    Y=             -0.6729    Z=             -0.0109  Tot=              4.2053
 Quadrupole moment (field-independent basis, Debye-Ang):
   XX=            -13.7808   YY=            -27.8446   ZZ=            -26.2248
   XY=              1.9828   XZ=             -0.0586   YZ=              0.0052

  Exact polarizability:      58.691       1.441      37.899      -0.091      -0.018      34.819
 Approx polarizability:      42.533       0.174      31.225      -0.071      -0.015      31.174

                      1                      2                      3
                      A                      A                      A
 Frequencies --     60.5856                63.9614               101.3666
 Red. masses --      3.3549                 1.5866                 1.2218
 Frc consts  --      0.0073                 0.0038                 0.0074
 IR Inten    --     10.5805                13.8526                33.5264

                      4                      5                      6
                      A                      A                      A
 Frequencies --    181.7052               223.3401               245.4289
 Red. masses --      3.5578                 1.1292                 1.4056
 Frc consts  --      0.0692                 0.0332                 0.0499
 IR Inten    --      9.0064                 3.0463               209.7475

                      7                      8                      9
                      A                      A                      A
 Frequencies --    484.6342               673.8458               782.8090
 Red. masses --      2.2998                 1.3134                 1.1462
 Frc consts  --      0.3182                 0.3514                 0.4138
 IR Inten    --      2.0011                 9.8037                88.7619

                     10                     11                     12
                      A                      A                      A
 Frequencies --    826.1347               957.2334               966.9881
 Red. masses --      1.3960                 1.9071                 1.1126
 Frc consts  --      0.5613                 1.0296                 0.6130
 IR Inten    --     63.9633                39.8755                26.9139

                     13                     14                     15
                      A                      A                      A
 Frequencies --   1162.6447              1325.8662              1377.7821
 Red. masses --      2.3898                 1.2311                 1.2813
 Frc consts  --      1.9033                 1.2751                 1.4331
 IR Inten    --     48.7724                47.8275               133.3968

                     16                     17                     18
                      A                      A                      A
 Frequencies --   1438.2041              1624.5980              1714.7330
 Red. masses --      1.1655                 1.0847                 3.8609
 Frc consts  --      1.4204                 1.6868                 6.6885
 IR Inten    --      8.5138                56.5208               126.8530

                     19                     20                     21
                      A                      A                      A
 Frequencies --   3191.3843              3208.5008              3317.9686
 Red. masses --      1.0755                 1.0769                 1.1181
 Frc consts  --      6.4541                 6.5315                 7.2523
 IR Inten    --     11.6809                 1.7335                 5.6334

                     22                     23                     24
                      A                      A                      A
 Frequencies --   3659.7021              3795.2154              3923.9574
 Red. masses --      1.0677                 1.0454                 1.0816
 Frc consts  --      8.4254                 8.8718                 9.8119
 IR Inten    --    778.3235                 8.5299                97.2198

 - Thermochemistry -
 -------------------
 Temperature   298.150 Kelvin.  Pressure   1.00000 Atm.
 Atom     1 has atomic number  6 and mass  12.00000

 Molecular mass:    62.03678 amu.
 Principal axes and moments of inertia in atomic units:
                           1         2         3
     Eigenvalues --    61.44718 757.60047 810.63080
           X            0.99996   0.00837   0.00001
           Y           -0.00837   0.99996   0.00027
           Z           -0.00001  -0.00027   1.00000
 This molecule is an asymmetric top.
 Rotational symmetry number  1.
 Rotational temperatures (Kelvin)      1.40957     0.11433     0.10685
 Rotational constants (GHZ):          29.37061     2.38218     2.22634
 Zero-point vibrational energy     211192.3 (Joules/Mol)
                                   50.47616 (Kcal/Mol)
 Warning -- explicit consideration of   7 degrees of freedom as
           vibrations may cause significant error
 Vibrational temperatures:     87.17    92.03   145.84   261.43   321.34
          (Kelvin)            353.12   697.28   969.51  1126.29  1188.62
                             1377.25  1391.28  1672.79  1907.63  1982.32
                             2069.25  2337.43  2467.12  4591.69  4616.32
                             4773.82  5265.50  5460.47  5645.70

 Zero-point correction=                           0.080439 (Hartree/Particle)
 Thermal correction to Energy=                    0.087878
 Thermal correction to Enthalpy=                  0.088823
 Thermal correction to Gibbs Free Energy=         0.049188
 Sum of electronic and zero-point Energies=           -229.590753
 Sum of electronic and thermal Energies=              -229.583313
 Sum of electronic and thermal Enthalpies=            -229.582369
 Sum of electronic and thermal Free Energies=         -229.622003

                     E (Thermal)             CV                S
                      KCal/Mol        Cal/Mol-Kelvin    Cal/Mol-Kelvin
 Total                   55.145             22.245             83.418
 Electronic               0.000              0.000              0.000
 Translational            0.889              2.981             38.295
 Rotational               0.889              2.981             25.137
 Vibrational             53.367             16.283             19.985
 Vibration     1          0.597              1.973              4.438
 Vibration     2          0.597              1.972              4.331
 Vibration     3          0.604              1.948              3.428
 Vibration     4          0.630              1.865              2.311
 Vibration     5          0.649              1.806              1.932
 Vibration     6          0.660              1.770              1.763
 Vibration     7          0.841              1.284              0.698

 ## DEPERTURBED TRANSITIONS MOMENTS ##

 Electric dipole : Fundamental Bands
 ------------------------------------------------------------------------

 ## AFTER VARIATIONAL CORRECTION

 Electric dipole : Fundamental Bands
 ------------------------------------------------------------------------

                           ! Non-Optimized Parameters !
 Normal termination of Gaussian 16 at Fri Mar 21 16:01:29 2025.
