 Gaussian 16, Revision C.01,
 Gaussian 16:  EM64L-G16RevC.01  3-Jul-2019

 ----------------------------------------------
 # MP2/aug-cc-pVDZ opt freq=(vibrot,anharmonic)
 ----------------------------------------------

 ----
 blah
 ----
 Symbolic Z-matrix:
 Charge =  0 Multiplicity = 1

 SCF Done:  E(RHF) =  -209.128819498     A.U. after   13 cycles
 E2 =    -0.6888245088D+00 EUMP2 =    -0.20981764400640D+03
 SCF Done:  E(RHF) =  -209.128094422     A.U. after   12 cycles
 E2 =    -0.6904456780D+00 EUMP2 =    -0.20981854009950D+03
 SCF Done:  E(RHF) =  -209.124776047     A.U. after   13 cycles
 E2 =    -0.6921072934D+00 EUMP2 =    -0.20981688334080D+03
 SCF Done:  E(RHF) =  -209.129756336     A.U. after   11 cycles
 E2 =    -0.6896078327D+00 EUMP2 =    -0.20981936416841D+03
 SCF Done:  E(RHF) =  -209.130282254     A.U. after   10 cycles
 E2 =    -0.6891274812D+00 EUMP2 =    -0.20981940973551D+03
 SCF Done:  E(RHF) =  -209.130800890     A.U. after   11 cycles
 E2 =    -0.6884321061D+00 EUMP2 =    -0.20981923299619D+03
 SCF Done:  E(RHF) =  -209.131202735     A.U. after   11 cycles
 E2 =    -0.6881755129D+00 EUMP2 =    -0.20981937824781D+03
 SCF Done:  E(RHF) =  -209.130703039     A.U. after   10 cycles
 E2 =    -0.6887190116D+00 EUMP2 =    -0.20981942205067D+03
 SCF Done:  E(RHF) =  -209.130660927     A.U. after    9 cycles
 E2 =    -0.6887724843D+00 EUMP2 =    -0.20981943341136D+03
 SCF Done:  E(RHF) =  -209.130605123     A.U. after    9 cycles
 E2 =    -0.6888325032D+00 EUMP2 =    -0.20981943762611D+03
 E2 =    -0.6888448666D+00 EUMP2 =    -0.20981943961816D+03
 E2 =    -0.6888442941D+00 EUMP2 =    -0.20981944152178D+03
 E2 =    -0.6888466458D+00 EUMP2 =    -0.20981944269402D+03
 E2 =    -0.6888536160D+00 EUMP2 =    -0.20981944329940D+03
 E2 =    -0.6888595155D+00 EUMP2 =    -0.20981944339241D+03
 Optimization completed.
    -- Stationary point found.
 Normal termination of Gaussian 16 at Fri Mar 21 15:04:37 2025.

 ----------------------------------------------------------------------
 #N Geom=AllCheck Guess=TCheck SCRF=Check GenChk RMP2(FC)/Aug-CC-pVDZ F
 req
 ----------------------------------------------------------------------

 Structure from the checkpoint file:  "/scr/Gau-23730.chk"
 ----
 blah
 ----
 Charge =  0 Multiplicity = 1

                         Standard orientation:
 ---------------------------------------------------------------------
 Center     Atomic      Atomic             Coordinates (Angstroms)
 Number     Number       Type             X           Y           Z
 ---------------------------------------------------------------------
      1          6           0       -0.975659    0.298751   -0.000174
      2          6           0       -2.321747    0.187652    0.000154
      3          1           0       -0.488838    1.282789   -0.000453
      4          8           0       -0.138219   -0.779163   -0.000140
      5          1           0       -2.929688    1.092066    0.000114
      6          1           0       -2.808577   -0.789280    0.000445
      7          1           0        0.789872   -0.446289   -0.000415
      8          7           0        2.520471    0.186518   -0.000006
      9          1           0        2.769685    0.732829    0.824714
     10          1           0        3.148453   -0.617605   -0.012227
     11          1           0        2.765983    0.754752   -0.810899
 ---------------------------------------------------------------------

 E2 =    -0.6888595135D+00 EUMP2 =    -0.20981944339042D+03
 E2 =    -0.6888595135D+00 EUMP2 =    -0.20981944339042D+03
 E2 =    -0.6888606633D+00 EUMP2 =    -0.20981944341164D+03
 E2 =    -0.6888606633D+00 EUMP2 =    -0.20981944341164D+03
 E2 =    -0.6888605879D+00 EUMP2 =    -0.20981944335774D+03
 SCF Done:  E(RHF) =  -209.130478192     A.U. after    8 cycles
 E2 =    -0.6888911209D+00 EUMP2 =    -0.20981936931340D+03
 E2 =    -0.6888911209D+00 EUMP2 =    -0.20981936931340D+03
 SCF Done:  E(RHF) =  -209.130541706     A.U. after    8 cycles
 E2 =    -0.6888271465D+00 EUMP2 =    -0.20981936885232D+03
 E2 =    -0.6888271465D+00 EUMP2 =    -0.20981936885232D+03
 SCF Done:  E(RHF) =  -209.129900492     A.U. after    9 cycles
 E2 =    -0.6894662321D+00 EUMP2 =    -0.20981936672361D+03
 E2 =    -0.6894662321D+00 EUMP2 =    -0.20981936672361D+03
 SCF Done:  E(RHF) =  -209.131107662     A.U. after    9 cycles
 E2 =    -0.6882543993D+00 EUMP2 =    -0.20981936206121D+03
 E2 =    -0.6882543993D+00 EUMP2 =    -0.20981936206121D+03
 SCF Done:  E(RHF) =  -209.130124366     A.U. after    9 cycles
 E2 =    -0.6892380282D+00 EUMP2 =    -0.20981936239371D+03
 E2 =    -0.6892380282D+00 EUMP2 =    -0.20981936239371D+03
 SCF Done:  E(RHF) =  -209.130877561     A.U. after    9 cycles
 E2 =    -0.6884833125D+00 EUMP2 =    -0.20981936087326D+03
 E2 =    -0.6884833125D+00 EUMP2 =    -0.20981936087326D+03
 SCF Done:  E(RHF) =  -209.130490045     A.U. after    8 cycles
 E2 =    -0.6888637115D+00 EUMP2 =    -0.20981935375629D+03
 E2 =    -0.6888637115D+00 EUMP2 =    -0.20981935375629D+03
 SCF Done:  E(RHF) =  -209.130500990     A.U. after    8 cycles
 E2 =    -0.6888543085D+00 EUMP2 =    -0.20981935529833D+03
 E2 =    -0.6888543085D+00 EUMP2 =    -0.20981935529833D+03
 SCF Done:  E(RHF) =  -209.130495512     A.U. after    8 cycles
 E2 =    -0.6888588255D+00 EUMP2 =    -0.20981935433774D+03
 E2 =    -0.6888588255D+00 EUMP2 =    -0.20981935433774D+03
 SCF Done:  E(RHF) =  -209.130495244     A.U. after    8 cycles
 E2 =    -0.6888591414D+00 EUMP2 =    -0.20981935438538D+03
 E2 =    -0.6888591414D+00 EUMP2 =    -0.20981935438538D+03

 Alpha  occ. eigenvalues --  -20.55994 -15.59250 -11.28773 -11.20214  -1.36663
 Alpha  occ. eigenvalues --   -1.18238  -0.99557  -0.76886  -0.71344  -0.66599
 Alpha  occ. eigenvalues --   -0.66232  -0.59359  -0.55364  -0.54057  -0.49784
 Alpha  occ. eigenvalues --   -0.46552  -0.31800
 Alpha virt. eigenvalues --    0.02310   0.04712   0.05090   0.05523   0.06707
 Alpha virt. eigenvalues --    0.07291   0.09060   0.12865   0.13902   0.14004
 Alpha virt. eigenvalues --    0.14931   0.17567   0.18545   0.18605   0.18936

 Mulliken charges:
               1
     1  C    0.948248
     2  C    0.391108
     3  H   -0.431341
     4  O   -0.577628
     5  H   -0.274004
     6  H   -0.299043
     7  H    0.301131
     8  N   -0.185946
     9  H    0.038580
    10  H    0.027941
    11  H    0.060954
 Sum of Mulliken charges =  -0.00000

 Dipole moment (field-independent basis, Debye):
    X=              4.3193    Y=              1.7329    Z=             -0.0045  Tot=              4.6539
 Quadrupole moment (field-independent basis, Debye-Ang):
   XX=            -17.2985   YY=            -26.4154   ZZ=            -28.1772
   XY=              0.6475   XZ=             -0.0196   YZ=             -0.0172

  Exact polarizability:      67.034      -0.679      42.070      -0.049      -0.069      37.964
 Approx polarizability:      46.434       0.112      35.844      -0.033      -0.063      34.159

                      1                      2                      3
                      A                      A                      A
 Frequencies --     30.3881                70.5921                75.1527
 Red. masses --      1.1198                 2.7774                 1.9190
 Frc consts  --      0.0006                 0.0082                 0.0064
 IR Inten    --      0.8088                 2.7019                 0.3705

                      4                      5                      6
                      A                      A                      A
 Frequencies --    209.3320               257.2192               313.3174
 Red. masses --      4.2437                 1.1538                 1.2260
 Frc consts  --      0.1096                 0.0450                 0.0709
 IR Inten    --      9.6384                13.2817                27.2454

                      7                      8                      9
                      A                      A                      A
 Frequencies --    493.6631               694.8535               818.3976
 Red. masses --      2.3097                 1.4148                 1.4527
 Frc consts  --      0.3316                 0.4025                 0.5733
 IR Inten    --      1.4767                 0.1245                41.3147

                     10                     11                     12
                      A                      A                      A
 Frequencies --    877.9482               962.1123               966.2885
 Red. masses --      1.0577                 1.8925                 1.1130
 Frc consts  --      0.4803                 1.0322                 0.6123
 IR Inten    --    116.8405                35.7799                19.8477

                     13                     14                     15
                      A                      A                      A
 Frequencies --   1130.6369              1176.1123              1327.3114
 Red. masses --      1.1856                 2.6392                 1.2044
 Frc consts  --      0.8930                 2.1509                 1.2501
 IR Inten    --    152.8286                70.0726                24.0761

                     16                     17                     18
                      A                      A                      A
 Frequencies --   1415.0723              1470.2240              1646.3379
 Red. masses --      1.2751                 1.1723                 1.0714
 Frc consts  --      1.5043                 1.4930                 1.7109
 IR Inten    --     72.2894                86.8349                 9.6039

                     19                     20                     21
                      A                      A                      A
 Frequencies --   1647.9769              1717.7782              3172.4893
 Red. masses --      1.0620                 3.4417                 1.0848
 Frc consts  --      1.6994                 5.9835                 6.4326
 IR Inten    --     17.6950               132.1749                18.9884

                     22                     23                     24
                      A                      A                      A
 Frequencies --   3204.8739              3315.9515              3418.5497
 Red. masses --      1.0665                 1.1182                 1.0694
 Frc consts  --      6.4542                 7.2438                 7.3635
 IR Inten    --      0.7326                 6.8860              1333.9346

                     25                     26                     27
                      A                      A                      A
 Frequencies --   3478.2691              3626.1663              3629.4356
 Red. masses --      1.0288                 1.0887                 1.0890
 Frc consts  --      7.3334                 8.4344                 8.4521
 IR Inten    --     23.7842                15.5702                15.0561

 - Thermochemistry -
 -------------------
 Temperature   298.150 Kelvin.  Pressure   1.00000 Atm.
 Atom     1 has atomic number  6 and mass  12.00000

 Molecular mass:    61.05276 amu.
 Principal axes and moments of inertia in atomic units:
                           1         2         3
     Eigenvalues --    64.86089 747.97549 803.20643
           X            1.00000   0.00163   0.00001
           Y           -0.00163   1.00000  -0.00004
           Z           -0.00001   0.00004   1.00000
 This molecule is an asymmetric top.
 Rotational symmetry number  1.
 Rotational temperatures (Kelvin)      1.33538     0.11580     0.10784
 Rotational constants (GHZ):          27.82480     2.41283     2.24692
 Zero-point vibrational energy     246110.4 (Joules/Mol)
                                   58.82180 (Kcal/Mol)
 Warning -- explicit consideration of   7 degrees of freedom as
           vibrations may cause significant error
 Vibrational temperatures:     43.72   101.57   108.13   301.18   370.08
          (Kelvin)            450.79   710.27   999.74  1177.49  1263.17
                             1384.26  1390.27  1626.73  1692.16  1909.70
                             2035.97  2115.32  2368.71  2371.07  2471.50
                             4564.50  4611.10  4770.91  4918.53  5004.45
                             5217.24  5221.95

 Zero-point correction=                           0.093739 (Hartree/Particle)
 Thermal correction to Energy=                    0.101080
 Thermal correction to Enthalpy=                  0.102025
 Thermal correction to Gibbs Free Energy=         0.062035
 Sum of electronic and zero-point Energies=           -209.725705
 Sum of electronic and thermal Energies=              -209.718363
 Sum of electronic and thermal Enthalpies=            -209.717419
 Sum of electronic and thermal Free Energies=         -209.757409

                     E (Thermal)             CV                S
                      KCal/Mol        Cal/Mol-Kelvin    Cal/Mol-Kelvin
 Total                   63.429             22.113             84.166
 Electronic               0.000              0.000              0.000
 Translational            0.889              2.981             38.247
 Rotational               0.889              2.981             25.169
 Vibrational             61.651             16.152             20.749
 Vibration     1          0.594              1.984              5.804
 Vibration     2          0.598              1.968              4.137
 Vibration     3          0.599              1.966              4.014
 Vibration     4          0.642              1.827              2.049
 Vibration     5          0.667              1.751              1.681
 Vibration     6          0.701              1.648              1.345
 Vibration     7          0.849              1.264              0.674

 ## DEPERTURBED TRANSITIONS MOMENTS ##

 Electric dipole : Fundamental Bands
 ------------------------------------------------------------------------

 ## AFTER VARIATIONAL CORRECTION

 Electric dipole : Fundamental Bands
 ------------------------------------------------------------------------

                           ! Non-Optimized Parameters !
 Normal termination of Gaussian 16 at Fri Mar 21 16:31:53 2025.
