 Gaussian 16, Revision C.01,
 Gaussian 16:  EM64L-G16RevC.01  3-Jul-2019

 --------------------------------------------------------------------
 # MP2/aug-cc-pVTZ opt freq=(vibrot,anharmonic,SelectAnharmonicModes)
 --------------------------------------------------------------------

 ----
 blah
 ----
 Symbolic Z-matrix:
 Charge =  0 Multiplicity = 1

 SCF Done:  E(RHF) =  -209.185527640     A.U. after   12 cycles
 E2 =    -0.8264327580D+00 EUMP2 =    -0.21001196039799D+03
 SCF Done:  E(RHF) =  -209.185526508     A.U. after    6 cycles
 E2 =    -0.8264338904D+00 EUMP2 =    -0.21001196039846D+03
 SCF Done:  E(RHF) =  -209.185527757     A.U. after    7 cycles
 E2 =    -0.8264326381D+00 EUMP2 =    -0.21001196039520D+03
 Optimization completed.
    -- Stationary point found.
 Normal termination of Gaussian 16 at Thu Apr  3 20:17:57 2025.

 ----------------------------------------------------------------------
 #N Geom=AllCheck Guess=TCheck SCRF=Check GenChk RMP2(FC)/Aug-CC-pVTZ F
 req
 ----------------------------------------------------------------------

 Structure from the checkpoint file:  "/scr/Gau-28495.chk"
 ----
 blah
 ----
 Charge =  0 Multiplicity = 1

                         Standard orientation:
 ---------------------------------------------------------------------
 Center     Atomic      Atomic             Coordinates (Angstroms)
 Number     Number       Type             X           Y           Z
 ---------------------------------------------------------------------
      1          6           0        0.979688   -0.297965   -0.000326
      2          6           0        2.310179   -0.179209    0.000146
      3          1           0        0.506615   -1.276010   -0.000310
      4          8           0        0.138291    0.762492   -0.000091
      5          1           0        2.918033   -1.069212    0.000489
      6          1           0        2.784437    0.790770    0.000444
      7          1           0       -0.785199    0.427751   -0.000204
      8          7           0       -2.517203   -0.182656    0.000032
      9          1           0       -2.765619   -0.723054    0.819753
     10          1           0       -3.120472    0.631173   -0.009318
     11          1           0       -2.762911   -0.739723   -0.809274
 ---------------------------------------------------------------------

 SCF Done:  E(RHF) =  -209.185527757     A.U. after    1 cycles
 E2 =    -0.8264326406D+00 EUMP2 =    -0.21001196039772D+03
 E2 =    -0.8264326406D+00 EUMP2 =    -0.21001196039772D+03
 SCF Done:  E(RHF) =  -209.185467496     A.U. after    7 cycles
 E2 =    -0.8264844412D+00 EUMP2 =    -0.21001195193702D+03
 E2 =    -0.8264844412D+00 EUMP2 =    -0.21001195193702D+03
 SCF Done:  E(RHF) =  -209.185565494     A.U. after    7 cycles
 E2 =    -0.8263864618D+00 EUMP2 =    -0.21001195195526D+03
 E2 =    -0.8263864618D+00 EUMP2 =    -0.21001195195526D+03
 SCF Done:  E(RHF) =  -209.185638936     A.U. after    8 cycles
 E2 =    -0.8263117118D+00 EUMP2 =    -0.21001195064760D+03
 E2 =    -0.8263117118D+00 EUMP2 =    -0.21001195064759D+03
 SCF Done:  E(RHF) =  -209.185395641     A.U. after    8 cycles
 E2 =    -0.8265552826D+00 EUMP2 =    -0.21001195092400D+03
 E2 =    -0.8265552826D+00 EUMP2 =    -0.21001195092400D+03
 SCF Done:  E(RHF) =  -209.185486201     A.U. after    8 cycles
 E2 =    -0.8264622294D+00 EUMP2 =    -0.21001194843025D+03
 E2 =    -0.8264622294D+00 EUMP2 =    -0.21001194843025D+03
 SCF Done:  E(RHF) =  -209.185541753     A.U. after    8 cycles
 E2 =    -0.8264064886D+00 EUMP2 =    -0.21001194824137D+03
 E2 =    -0.8264064886D+00 EUMP2 =    -0.21001194824137D+03
 E2 =    -0.8265156802D+00 EUMP2 =    -0.21001194639616D+03
 E2 =    -0.8265156802D+00 EUMP2 =    -0.21001194639616D+03
 E2 =    -0.8263550603D+00 EUMP2 =    -0.21001194701277D+03
 SCF Done:  E(RHF) =  -209.185431932     A.U. after    8 cycles
 E2 =    -0.8264549105D+00 EUMP2 =    -0.21001188684283D+03
 E2 =    -0.8264549105D+00 EUMP2 =    -0.21001188684283D+03
 SCF Done:  E(RHF) =  -209.185473817     A.U. after    8 cycles
 E2 =    -0.8264122162D+00 EUMP2 =    -0.21001188603281D+03
 E2 =    -0.8264122162D+00 EUMP2 =    -0.21001188603281D+03
 SCF Done:  E(RHF) =  -209.184877131     A.U. after    9 cycles
 E2 =    -0.8270062545D+00 EUMP2 =    -0.21001188338568D+03
 E2 =    -0.8270062545D+00 EUMP2 =    -0.21001188338568D+03
 SCF Done:  E(RHF) =  -209.186018020     A.U. after    9 cycles
 E2 =    -0.8258606272D+00 EUMP2 =    -0.21001187864722D+03
 E2 =    -0.8258606272D+00 EUMP2 =    -0.21001187864722D+03
 SCF Done:  E(RHF) =  -209.185740962     A.U. after    8 cycles
 E2 =    -0.8261349784D+00 EUMP2 =    -0.21001187594025D+03
 E2 =    -0.8261349784D+00 EUMP2 =    -0.21001187594025D+03
 SCF Done:  E(RHF) =  -209.185145355     A.U. after    8 cycles
 E2 =    -0.8267340223D+00 EUMP2 =    -0.21001187937757D+03
 E2 =    -0.8267340223D+00 EUMP2 =    -0.21001187937757D+03
 SCF Done:  E(RHF) =  -209.185432812     A.U. after    7 cycles
 E2 =    -0.8264372888D+00 EUMP2 =    -0.21001187010058D+03
 E2 =    -0.8264372888D+00 EUMP2 =    -0.21001187010058D+03
 SCF Done:  E(RHF) =  -209.185443199     A.U. after    7 cycles
 E2 =    -0.8264285004D+00 EUMP2 =    -0.21001187169905D+03
 E2 =    -0.8264285004D+00 EUMP2 =    -0.21001187169905D+03
 SCF Done:  E(RHF) =  -209.185437977     A.U. after    7 cycles
 E2 =    -0.8264327573D+00 EUMP2 =    -0.21001187073398D+03
 E2 =    -0.8264327573D+00 EUMP2 =    -0.21001187073398D+03
 SCF Done:  E(RHF) =  -209.185437779     A.U. after    7 cycles
 E2 =    -0.8264329976D+00 EUMP2 =    -0.21001187077646D+03
 E2 =    -0.8264329976D+00 EUMP2 =    -0.21001187077646D+03

 Alpha  occ. eigenvalues --  -20.54964 -15.58022 -11.27517 -11.18805  -1.36769
 Alpha  occ. eigenvalues --   -1.18377  -0.99836  -0.76999  -0.71733  -0.67016
 Alpha  occ. eigenvalues --   -0.66643  -0.59681  -0.55571  -0.54420  -0.49852
 Alpha  occ. eigenvalues --   -0.46504  -0.31964
 Alpha virt. eigenvalues --    0.01840   0.03880   0.04127   0.04491   0.05677
 Alpha virt. eigenvalues --    0.06018   0.07633   0.10850   0.11681   0.12016
 Alpha virt. eigenvalues --    0.12085   0.14252   0.14803   0.14843   0.15548

 Mulliken charges:
               1
     1  C   -0.268851
     2  C   -0.929371
     3  H    0.445296
     4  O   -0.513003
     5  H    0.364187
     6  H    0.421554
     7  H    0.379319
     8  N   -0.315902
     9  H    0.140016
    10  H    0.126547
    11  H    0.150208
 Sum of Mulliken charges =  -0.00000

 Dipole moment (field-independent basis, Debye):
    X=             -4.2924    Y=             -1.6869    Z=             -0.0053  Tot=              4.6120
 Quadrupole moment (field-independent basis, Debye-Ang):
   XX=            -17.0680   YY=            -25.9974   ZZ=            -27.7089
   XY=              0.6089   XZ=              0.0240   YZ=              0.0168

  Exact polarizability:      65.867      -0.731      41.885       0.048       0.067      37.775
 Approx polarizability:      45.469       0.114      35.564       0.033       0.061      33.968

                      1                      2                      3
                      A                      A                      A
 Frequencies --     28.5376                71.7613                73.5412
 Red. masses --      1.1264                 2.7699                 1.9082
 Frc consts  --      0.0005                 0.0084                 0.0061
 IR Inten    --      1.0681                 2.7956                 0.3711

                      4                      5                      6
                      A                      A                      A
 Frequencies --    207.8939               250.7165               312.5644
 Red. masses --      4.2145                 1.1554                 1.2255
 Frc consts  --      0.1073                 0.0428                 0.0705
 IR Inten    --      9.3916                12.8418                26.4383

                      7                      8                      9
                      A                      A                      A
 Frequencies --    498.3741               701.7329               819.4470
 Red. masses --      2.2828                 1.4001                 1.4448
 Frc consts  --      0.3341                 0.4062                 0.5716
 IR Inten    --      1.3447                 0.3310                46.5304

                     10                     11                     12
                      A                      A                      A
 Frequencies --    879.7470               972.5994               976.1087
 Red. masses --      1.0577                 1.8755                 1.1258
 Frc consts  --      0.4823                 1.0453                 0.6320
 IR Inten    --    110.7416                33.8245                16.2290

                     13                     14                     15
                      A                      A                      A
 Frequencies --   1118.2813              1192.6813              1336.0614
 Red. masses --      1.1890                 2.6183                 1.2099
 Frc consts  --      0.8761                 2.1944                 1.2725
 IR Inten    --    162.9915                66.9428                28.3485

                     16                     17                     18
                      A                      A                      A
 Frequencies --   1423.5432              1473.6358              1667.4160
 Red. masses --      1.2969                 1.1643                 1.0741
 Frc consts  --      1.5485                 1.4897                 1.7595
 IR Inten    --     90.9786                73.5225                10.9905

                     19                     20                     21
                      A                      A                      A
 Frequencies --   1668.6016              1724.3642              3163.0308
 Red. masses --      1.0635                 3.4408                 1.0861
 Frc consts  --      1.7446                 6.0280                 6.4024
 IR Inten    --     18.6087               138.1830                18.0701

                     22                     23                     24
                      A                      A                      A
 Frequencies --   3204.0280              3308.1415              3426.8333
 Red. masses --      1.0648                 1.1182                 1.0696
 Frc consts  --      6.4404                 7.2101                 7.4003
 IR Inten    --      0.2384                 4.9102              1366.2713

                     25                     26                     27
                      A                      A                      A
 Frequencies --   3499.0681              3639.1784              3642.1474
 Red. masses --      1.0278                 1.0893                 1.0895
 Frc consts  --      7.4141                 8.4994                 8.5154
 IR Inten    --     20.7780                20.8669                20.1794

 - Thermochemistry -
 -------------------
 Temperature   298.150 Kelvin.  Pressure   1.00000 Atm.
 Atom     1 has atomic number  6 and mass  12.00000

 Molecular mass:    61.05276 amu.
 Principal axes and moments of inertia in atomic units:
                           1         2         3
     Eigenvalues --    62.78060 743.69594 796.92471
           X            1.00000   0.00143   0.00000
           Y           -0.00143   1.00000   0.00001
           Z           -0.00000  -0.00001   1.00000
 This molecule is an asymmetric top.
 Rotational symmetry number  1.
 Rotational temperatures (Kelvin)      1.37963     0.11646     0.10869
 Rotational constants (GHZ):          28.74680     2.42672     2.26463
 Zero-point vibrational energy     246909.4 (Joules/Mol)
                                   59.01277 (Kcal/Mol)
 Warning -- explicit consideration of   7 degrees of freedom as
           vibrations may cause significant error
 Vibrational temperatures:     41.06   103.25   105.81   299.11   360.73
          (Kelvin)            449.71   717.05  1009.64  1179.00  1265.76
                             1399.35  1404.40  1608.96  1716.00  1922.29
                             2048.16  2120.23  2399.04  2400.75  2480.98
                             4550.90  4609.88  4759.68  4930.45  5034.38
                             5235.97  5240.24

 Zero-point correction=                           0.094043 (Hartree/Particle)
 Thermal correction to Energy=                    0.101390
 Thermal correction to Enthalpy=                  0.102334
 Thermal correction to Gibbs Free Energy=         0.062289
 Sum of electronic and zero-point Energies=           -209.917918
 Sum of electronic and thermal Energies=              -209.910570
 Sum of electronic and thermal Enthalpies=            -209.909626
 Sum of electronic and thermal Free Energies=         -209.949671

                     E (Thermal)             CV                S
                      KCal/Mol        Cal/Mol-Kelvin    Cal/Mol-Kelvin
 Total                   63.623             22.060             84.283
 Electronic               0.000              0.000              0.000
 Translational            0.889              2.981             38.247
 Rotational               0.889              2.981             25.123
 Vibrational             61.846             16.099             20.912
 Vibration     1          0.593              1.984              5.929
 Vibration     2          0.598              1.967              4.104
 Vibration     3          0.599              1.966              4.056
 Vibration     4          0.641              1.829              2.062
 Vibration     5          0.663              1.762              1.726
 Vibration     6          0.701              1.650              1.349
 Vibration     7          0.854              1.254              0.662

 ## DEPERTURBED TRANSITIONS MOMENTS ##

 Electric dipole : Fundamental Bands
 ------------------------------------------------------------------------

 ## AFTER VARIATIONAL CORRECTION

 Electric dipole : Fundamental Bands
 ------------------------------------------------------------------------

                           ! Non-Optimized Parameters !
 Normal termination of Gaussian 16 at Fri Apr  4 16:34:18 2025.
