 Gaussian 16, Revision C.01,
 Gaussian 16:  EM64L-G16RevC.01  3-Jul-2019

 ----------------------------------------------
 # MP2/aug-cc-pVDZ opt freq=(vibrot,anharmonic)
 ----------------------------------------------

 ----
 blah
 ----
 Symbolic Z-matrix:
 Charge =  0 Multiplicity = 1

 SCF Done:  E(RHF) =  -228.963430430     A.U. after   13 cycles
 E2 =    -0.7069254695D+00 EUMP2 =    -0.22967035589922D+03
 SCF Done:  E(RHF) =  -228.963501291     A.U. after   11 cycles
 E2 =    -0.7079091434D+00 EUMP2 =    -0.22967141043492D+03
 SCF Done:  E(RHF) =  -228.960027393     A.U. after   14 cycles
 E2 =    -0.7088492284D+00 EUMP2 =    -0.22966887662182D+03
 SCF Done:  E(RHF) =  -228.964987778     A.U. after   10 cycles
 E2 =    -0.7072494209D+00 EUMP2 =    -0.22967223719933D+03
 SCF Done:  E(RHF) =  -228.965484507     A.U. after   10 cycles
 E2 =    -0.7069048978D+00 EUMP2 =    -0.22967238940448D+03
 SCF Done:  E(RHF) =  -228.965864977     A.U. after   10 cycles
 E2 =    -0.7066105228D+00 EUMP2 =    -0.22967247550009D+03
 SCF Done:  E(RHF) =  -228.966263761     A.U. after   12 cycles
 E2 =    -0.7059282497D+00 EUMP2 =    -0.22967219201024D+03
 SCF Done:  E(RHF) =  -228.966033562     A.U. after    9 cycles
 E2 =    -0.7065208440D+00 EUMP2 =    -0.22967255440629D+03
 SCF Done:  E(RHF) =  -228.966011383     A.U. after    9 cycles
 E2 =    -0.7065674662D+00 EUMP2 =    -0.22967257884922D+03
 SCF Done:  E(RHF) =  -228.965937486     A.U. after    9 cycles
 E2 =    -0.7066680410D+00 EUMP2 =    -0.22967260552653D+03
 E2 =    -0.7068048162D+00 EUMP2 =    -0.22967264295680D+03
 E2 =    -0.7070222895D+00 EUMP2 =    -0.22967268365759D+03
 E2 =    -0.7068676905D+00 EUMP2 =    -0.22967269513925D+03
 E2 =    -0.7068811921D+00 EUMP2 =    -0.22967270904947D+03
 E2 =    -0.7069015813D+00 EUMP2 =    -0.22967270959133D+03
 E2 =    -0.7068961241D+00 EUMP2 =    -0.22967270961395D+03
 Optimization completed.
    -- Stationary point found.
 Normal termination of Gaussian 16 at Fri Mar 21 13:55:04 2025.

 ----------------------------------------------------------------------
 #N Geom=AllCheck Guess=TCheck SCRF=Check GenChk RMP2(FC)/Aug-CC-pVDZ F
 req
 ----------------------------------------------------------------------

 Structure from the checkpoint file:  "/scr/Gau-51543.chk"
 ----
 blah
 ----
 Charge =  0 Multiplicity = 1

                         Standard orientation:
 ---------------------------------------------------------------------
 Center     Atomic      Atomic             Coordinates (Angstroms)
 Number     Number       Type             X           Y           Z
 ---------------------------------------------------------------------
      1          6           0        1.360335   -0.287887    0.000869
      2          6           0        1.315486    1.063519   -0.000712
      3          1           0        2.306203   -0.836246    0.003730
      4          8           0        0.291888   -1.142327   -0.000747
      5          1           0        2.251015    1.622956    0.000921
      6          1           0        0.369118    1.609422   -0.003732
      7          1           0       -0.533020   -0.617209   -0.002903
      8          8           0       -2.164072    0.301228   -0.000477
      9          1           0       -2.728327    0.151049    0.769847
     10          1           0       -2.742442    0.145025   -0.759019
 ---------------------------------------------------------------------

 E2 =    -0.7068961224D+00 EUMP2 =    -0.22967270961228D+03
 E2 =    -0.7068961224D+00 EUMP2 =    -0.22967270961228D+03
 E2 =    -0.7068978985D+00 EUMP2 =    -0.22967270965556D+03
 E2 =    -0.7068978985D+00 EUMP2 =    -0.22967270965556D+03
 SCF Done:  E(RHF) =  -228.965550136     A.U. after    9 cycles
 E2 =    -0.7070899407D+00 EUMP2 =    -0.22967264007650D+03
 E2 =    -0.7070899407D+00 EUMP2 =    -0.22967264007650D+03
 SCF Done:  E(RHF) =  -228.965934627     A.U. after    9 cycles
 E2 =    -0.7067030446D+00 EUMP2 =    -0.22967263767176D+03
 E2 =    -0.7067030446D+00 EUMP2 =    -0.22967263767176D+03
 SCF Done:  E(RHF) =  -228.965696417     A.U. after    8 cycles
 E2 =    -0.7069395488D+00 EUMP2 =    -0.22967263596607D+03
 E2 =    -0.7069395488D+00 EUMP2 =    -0.22967263596607D+03
 SCF Done:  E(RHF) =  -228.965783140     A.U. after    8 cycles
 E2 =    -0.7068520490D+00 EUMP2 =    -0.22967263518917D+03
 E2 =    -0.7068520490D+00 EUMP2 =    -0.22967263518917D+03
 SCF Done:  E(RHF) =  -228.966287863     A.U. after   10 cycles
 E2 =    -0.7063307966D+00 EUMP2 =    -0.22967261865970D+03
 E2 =    -0.7063307966D+00 EUMP2 =    -0.22967261865970D+03
 SCF Done:  E(RHF) =  -228.965160025     A.U. after   10 cycles
 E2 =    -0.7074636157D+00 EUMP2 =    -0.22967262364064D+03
 E2 =    -0.7074636157D+00 EUMP2 =    -0.22967262364064D+03
 SCF Done:  E(RHF) =  -228.966321198     A.U. after    9 cycles
 E2 =    -0.7062894094D+00 EUMP2 =    -0.22967261060707D+03
 E2 =    -0.7062894094D+00 EUMP2 =    -0.22967261060707D+03
 SCF Done:  E(RHF) =  -228.965108295     A.U. after    9 cycles
 E2 =    -0.7075058494D+00 EUMP2 =    -0.22967261414451D+03
 E2 =    -0.7075058494D+00 EUMP2 =    -0.22967261414451D+03
 SCF Done:  E(RHF) =  -228.965710819     A.U. after    8 cycles
 E2 =    -0.7068946938D+00 EUMP2 =    -0.22967260551309D+03
 E2 =    -0.7068946938D+00 EUMP2 =    -0.22967260551309D+03
 SCF Done:  E(RHF) =  -228.965709541     A.U. after    8 cycles
 E2 =    -0.7068960597D+00 EUMP2 =    -0.22967260560049D+03
 E2 =    -0.7068960597D+00 EUMP2 =    -0.22967260560049D+03

 Alpha  occ. eigenvalues --  -20.61291 -20.57271 -11.29440 -11.20948  -1.39088
 Alpha  occ. eigenvalues --   -1.37503  -0.99929  -0.80943  -0.74879  -0.66423
 Alpha  occ. eigenvalues --   -0.64526  -0.62241  -0.55052  -0.54880  -0.52436
 Alpha  occ. eigenvalues --   -0.51187  -0.32716
 Alpha virt. eigenvalues --    0.02577   0.04929   0.05242   0.05685   0.07394
 Alpha virt. eigenvalues --    0.07845   0.12413   0.13297   0.13911   0.14777
 Alpha virt. eigenvalues --    0.16857   0.17523   0.18828   0.20839   0.20896

 Mulliken charges:
               1
     1  C    0.754065
     2  C    0.538601
     3  H   -0.287040
     4  O   -0.508941
     5  H   -0.314548
     6  H   -0.330933
     7  H    0.181718
     8  O   -0.371990
     9  H    0.160883
    10  H    0.178185
 Sum of Mulliken charges =  -0.00000

 Dipole moment (field-independent basis, Debye):
    X=             -3.2510    Y=              0.5325    Z=              0.0009  Tot=              3.2944
 Quadrupole moment (field-independent basis, Debye-Ang):
   XX=            -13.4879   YY=            -29.5840   ZZ=            -26.2365
   XY=              0.2845   XZ=              0.0425   YZ=              0.0121

  Exact polarizability:      45.011       2.238      49.029       0.086       0.010      34.818
 Approx polarizability:      33.232       0.421      40.403       0.068       0.010      31.308

                      1                      2                      3
                      A                      A                      A
 Frequencies --     55.8757                72.6679               123.7514
 Red. masses --      1.1182                 3.4695                 1.3791
 Frc consts  --      0.0021                 0.0108                 0.0124
 IR Inten    --     43.7598                11.4707                 1.0283

                      4                      5                      6
                      A                      A                      A
 Frequencies --    176.3943               237.2531               252.4361
 Red. masses --      3.5325                 1.4220                 1.2214
 Frc consts  --      0.0648                 0.0472                 0.0459
 IR Inten    --     12.3386               192.0254                 2.7210

                      7                      8                      9
                      A                      A                      A
 Frequencies --    502.5652               713.9189               780.9590
 Red. masses --      2.1923                 1.3528                 1.1510
 Frc consts  --      0.3262                 0.4062                 0.4136
 IR Inten    --      5.3280                16.1717                64.5538

                     10                     11                     12
                      A                      A                      A
 Frequencies --    822.9452               955.7425               998.1263
 Red. masses --      1.3637                 1.7981                 1.1137
 Frc consts  --      0.5441                 0.9677                 0.6537
 IR Inten    --     37.1922                18.0147                54.6883

                     13                     14                     15
                      A                      A                      A
 Frequencies --   1151.4578              1333.0927              1389.8495
 Red. masses --      2.3600                 1.2115                 1.3809
 Frc consts  --      1.8435                 1.2685                 1.5716
 IR Inten    --    164.4314                 9.8894                 2.8859

                     16                     17                     18
                      A                      A                      A
 Frequencies --   1451.9776              1624.9020              1683.6594
 Red. masses --      1.1453                 1.0831                 4.1150
 Frc consts  --      1.4226                 1.6848                 6.8727
 IR Inten    --     20.5380                65.8690               173.3107

                     19                     20                     21
                      A                      A                      A
 Frequencies --   3196.1344              3235.1798              3309.8761
 Red. masses --      1.0584                 1.0953                 1.1172
 Frc consts  --      6.3701                 6.7542                 7.2111
 IR Inten    --      1.1602                16.7985                 7.4056

                     22                     23                     24
                      A                      A                      A
 Frequencies --   3617.5487              3793.1124              3923.7789
 Red. masses --      1.0667                 1.0454                 1.0816
 Frc consts  --      8.2244                 8.8614                 9.8110
 IR Inten    --    502.3199                10.9380                94.7741

 - Thermochemistry -
 -------------------
 Temperature   298.150 Kelvin.  Pressure   1.00000 Atm.
 Atom     1 has atomic number  6 and mass  12.00000

 Molecular mass:    62.03678 amu.
 Principal axes and moments of inertia in atomic units:
                           1         2         3
     Eigenvalues --   158.43911 522.82265 672.84845
           X            0.99985   0.01748  -0.00006
           Y           -0.01748   0.99985   0.00001
           Z            0.00006  -0.00001   1.00000
 This molecule is an asymmetric top.
 Rotational symmetry number  1.
 Rotational temperatures (Kelvin)      0.54667     0.16567     0.12873
 Rotational constants (GHZ):          11.39076     3.45192     2.68224
 Zero-point vibrational energy     211758.2 (Joules/Mol)
                                   50.61142 (Kcal/Mol)
 Warning -- explicit consideration of   7 degrees of freedom as
           vibrations may cause significant error
 Vibrational temperatures:     80.39   104.55   178.05   253.79   341.35
          (Kelvin)            363.20   723.08  1027.17  1123.63  1184.03
                             1375.10  1436.08  1656.69  1918.02  1999.68
                             2089.07  2337.87  2422.41  4598.52  4654.70
                             4762.17  5204.85  5457.44  5645.44

 Zero-point correction=                           0.080654 (Hartree/Particle)
 Thermal correction to Energy=                    0.087990
 Thermal correction to Enthalpy=                  0.088934
 Thermal correction to Gibbs Free Energy=         0.049440
 Sum of electronic and zero-point Energies=           -229.592055
 Sum of electronic and thermal Energies=              -229.584720
 Sum of electronic and thermal Enthalpies=            -229.583776
 Sum of electronic and thermal Free Energies=         -229.623269

                     E (Thermal)             CV                S
                      KCal/Mol        Cal/Mol-Kelvin    Cal/Mol-Kelvin
 Total                   55.214             22.054             83.122
 Electronic               0.000              0.000              0.000
 Translational            0.889              2.981             38.295
 Rotational               0.889              2.981             25.525
 Vibrational             53.437             16.093             19.302
 Vibration     1          0.596              1.975              4.598
 Vibration     2          0.599              1.967              4.080
 Vibration     3          0.610              1.929              3.041
 Vibration     4          0.628              1.871              2.366
 Vibration     5          0.656              1.784              1.823
 Vibration     6          0.664              1.759              1.714
 Vibration     7          0.858              1.244              0.652

 ## DEPERTURBED TRANSITIONS MOMENTS ##

 Electric dipole : Fundamental Bands
 ------------------------------------------------------------------------

 ## AFTER VARIATIONAL CORRECTION

 Electric dipole : Fundamental Bands
 ------------------------------------------------------------------------

                           ! Non-Optimized Parameters !
 Normal termination of Gaussian 16 at Fri Mar 21 15:00:45 2025.
