 Gaussian 16, Revision C.01,
 Gaussian 16:  EM64L-G16RevC.01  3-Jul-2019

 ----------------------------------------------
 # MP2/aug-cc-pVTZ opt freq=(vibrot,anharmonic)
 ----------------------------------------------

 ----
 blah
 ----
 Symbolic Z-matrix:
 Charge =  0 Multiplicity = 1

 SCF Done:  E(RHF) =  -229.018994595     A.U. after   12 cycles
 E2 =    -0.8553320276D+00 EUMP2 =    -0.22987432662268D+03
 SCF Done:  E(RHF) =  -229.021090164     A.U. after   11 cycles
 E2 =    -0.8541298948D+00 EUMP2 =    -0.22987522005888D+03
 SCF Done:  E(RHF) =  -229.024670450     A.U. after   11 cycles
 E2 =    -0.8505126994D+00 EUMP2 =    -0.22987518314951D+03
 SCF Done:  E(RHF) =  -229.023680766     A.U. after    9 cycles
 E2 =    -0.8524086110D+00 EUMP2 =    -0.22987608937672D+03
 SCF Done:  E(RHF) =  -229.023942268     A.U. after    9 cycles
 E2 =    -0.8522388968D+00 EUMP2 =    -0.22987618116510D+03
 SCF Done:  E(RHF) =  -229.024100402     A.U. after   10 cycles
 E2 =    -0.8521168021D+00 EUMP2 =    -0.22987621720417D+03
 SCF Done:  E(RHF) =  -229.024093539     A.U. after   10 cycles
 E2 =    -0.8521750055D+00 EUMP2 =    -0.22987626854470D+03
 SCF Done:  E(RHF) =  -229.024135412     A.U. after    9 cycles
 E2 =    -0.8521545703D+00 EUMP2 =    -0.22987628998245D+03
 SCF Done:  E(RHF) =  -229.024181365     A.U. after   10 cycles
 E2 =    -0.8521450245D+00 EUMP2 =    -0.22987632638919D+03
 SCF Done:  E(RHF) =  -229.024168459     A.U. after    9 cycles
 E2 =    -0.8521984640D+00 EUMP2 =    -0.22987636692274D+03
 E2 =    -0.8524288603D+00 EUMP2 =    -0.22987642194839D+03
 E2 =    -0.8524122266D+00 EUMP2 =    -0.22987642417546D+03
 E2 =    -0.8525842472D+00 EUMP2 =    -0.22987639124956D+03
 E2 =    -0.8524401614D+00 EUMP2 =    -0.22987642693396D+03
 E2 =    -0.8524563785D+00 EUMP2 =    -0.22987642712711D+03
 E2 =    -0.8524560015D+00 EUMP2 =    -0.22987642715485D+03
 E2 =    -0.8524512861D+00 EUMP2 =    -0.22987642722282D+03
 E2 =    -0.8524506836D+00 EUMP2 =    -0.22987642724066D+03
 E2 =    -0.8524504237D+00 EUMP2 =    -0.22987642727496D+03
 E2 =    -0.8524511616D+00 EUMP2 =    -0.22987642728492D+03
 Optimization completed.
    -- Stationary point found.
 Normal termination of Gaussian 16 at Fri Mar 21 17:24:14 2025.

 ----------------------------------------------------------------------
 #N Geom=AllCheck Guess=TCheck SCRF=Check GenChk RMP2(FC)/Aug-CC-pVTZ F
 req
 ----------------------------------------------------------------------

 Structure from the checkpoint file:  "/scr/Gau-59461.chk"
 ----
 blah
 ----
 Charge =  0 Multiplicity = 1

                         Standard orientation:
 ---------------------------------------------------------------------
 Center     Atomic      Atomic             Coordinates (Angstroms)
 Number     Number       Type             X           Y           Z
 ---------------------------------------------------------------------
      1          6           0       -0.967102   -0.303333   -0.000188
      2          6           0       -2.295785   -0.181389    0.000142
      3          1           0       -0.486039   -1.275781   -0.000724
      4          8           0       -0.130824    0.768298   -0.000021
      5          1           0       -2.904959   -1.070327   -0.000135
      6          1           0       -2.767994    0.789533    0.000626
      7          1           0        0.784517    0.445378   -0.000098
      8          8           0        2.490077   -0.254038   -0.000036
      9          1           0        3.038487   -0.048322    0.763526
     10          1           0        3.039281   -0.046229   -0.762461
 ---------------------------------------------------------------------

 SCF Done:  E(RHF) =  -229.024035316     A.U. after    9 cycles
 E2 =    -0.8523216257D+00 EUMP2 =    -0.22987635694147D+03
 E2 =    -0.8523216257D+00 EUMP2 =    -0.22987635694147D+03
 SCF Done:  E(RHF) =  -229.023773096     A.U. after    9 cycles
 E2 =    -0.8525855916D+00 EUMP2 =    -0.22987635868778D+03
 E2 =    -0.8525855916D+00 EUMP2 =    -0.22987635868778D+03
 SCF Done:  E(RHF) =  -229.023882923     A.U. after    8 cycles
 E2 =    -0.8524706706D+00 EUMP2 =    -0.22987635359371D+03
 E2 =    -0.8524706706D+00 EUMP2 =    -0.22987635359371D+03
 SCF Done:  E(RHF) =  -229.023917504     A.U. after    8 cycles
 E2 =    -0.8524354268D+00 EUMP2 =    -0.22987635293075D+03
 E2 =    -0.8524354268D+00 EUMP2 =    -0.22987635293075D+03
 SCF Done:  E(RHF) =  -229.023333677     A.U. after    8 cycles
 E2 =    -0.8530047817D+00 EUMP2 =    -0.22987633845849D+03
 E2 =    -0.8530047817D+00 EUMP2 =    -0.22987633845849D+03
 SCF Done:  E(RHF) =  -229.024432309     A.U. after    8 cycles
 E2 =    -0.8519016076D+00 EUMP2 =    -0.22987633391686D+03
 E2 =    -0.8519016076D+00 EUMP2 =    -0.22987633391686D+03
 SCF Done:  E(RHF) =  -229.023338811     A.U. after    8 cycles
 E2 =    -0.8529919374D+00 EUMP2 =    -0.22987633074828D+03
 E2 =    -0.8529919374D+00 EUMP2 =    -0.22987633074828D+03
 SCF Done:  E(RHF) =  -229.024411963     A.U. after    8 cycles
 E2 =    -0.8519153686D+00 EUMP2 =    -0.22987632733184D+03
 E2 =    -0.8519153686D+00 EUMP2 =    -0.22987632733184D+03
 SCF Done:  E(RHF) =  -229.023871211     A.U. after    7 cycles
 E2 =    -0.8524515037D+00 EUMP2 =    -0.22987632271471D+03
 E2 =    -0.8524515037D+00 EUMP2 =    -0.22987632271471D+03
 SCF Done:  E(RHF) =  -229.023871227     A.U. after    7 cycles
 E2 =    -0.8524514851D+00 EUMP2 =    -0.22987632271251D+03
 E2 =    -0.8524514851D+00 EUMP2 =    -0.22987632271251D+03

 Alpha  occ. eigenvalues --  -20.60642 -20.55980 -11.27815 -11.19202  -1.39436
 Alpha  occ. eigenvalues --   -1.37414  -1.00348  -0.77572  -0.75536  -0.72632
 Alpha  occ. eigenvalues --   -0.62866  -0.60140  -0.56304  -0.55164  -0.53984
 Alpha  occ. eigenvalues --   -0.49753  -0.32514
 Alpha virt. eigenvalues --    0.01705   0.04124   0.04312   0.04831   0.05938
 Alpha virt. eigenvalues --    0.06535   0.10704   0.11679   0.11706   0.12043
 Alpha virt. eigenvalues --    0.13831   0.14878   0.15571   0.16868   0.16968

 Mulliken charges:
               1
     1  C   -0.318372
     2  C   -0.903208
     3  H    0.537075
     4  O   -0.482115
     5  H    0.321203
     6  H    0.479020
     7  H    0.332803
     8  O   -0.399600
     9  H    0.209716
    10  H    0.223478
 Sum of Mulliken charges =  -0.00000

 Dipole moment (field-independent basis, Debye):
    X=              4.1411    Y=             -0.6842    Z=             -0.0145  Tot=              4.1973
 Quadrupole moment (field-independent basis, Debye-Ang):
   XX=            -13.4970   YY=            -27.4616   ZZ=            -25.7791
   XY=              1.8685   XZ=             -0.0594   YZ=             -0.0078

  Exact polarizability:      57.888       1.483      37.944      -0.076      -0.020      34.668
 Approx polarizability:      41.733       0.194      31.105      -0.057      -0.022      31.048

                      1                      2                      3
                      A                      A                      A
 Frequencies --     59.3689                62.6178                99.0586
 Red. masses --      3.3218                 1.5958                 1.2064
 Frc consts  --      0.0069                 0.0037                 0.0070
 IR Inten    --     11.5205                12.9864                31.3749

                      4                      5                      6
                      A                      A                      A
 Frequencies --    178.3646               220.3098               231.8608
 Red. masses --      3.1113                 1.1366                 1.5025
 Frc consts  --      0.0583                 0.0325                 0.0476
 IR Inten    --     15.3795                 3.9961               201.8234

                      7                      8                      9
                      A                      A                      A
 Frequencies --    488.5575               679.3374               775.7997
 Red. masses --      2.2709                 1.2890                 1.1423
 Frc consts  --      0.3194                 0.3505                 0.4051
 IR Inten    --      1.6982                12.5231                92.6810

                     10                     11                     12
                      A                      A                      A
 Frequencies --    827.3391               967.5924               978.0693
 Red. masses --      1.4148                 1.8847                 1.1232
 Frc consts  --      0.5706                 1.0396                 0.6330
 IR Inten    --     58.1513                37.6648                22.6458

                     13                     14                     15
                      A                      A                      A
 Frequencies --   1178.4438              1333.4336              1379.4869
 Red. masses --      2.3367                 1.2484                 1.2895
 Frc consts  --      1.9119                 1.3078                 1.4458
 IR Inten    --     44.6105                61.1076               134.2618

                     16                     17                     18
                      A                      A                      A
 Frequencies --   1447.5882              1630.1094              1721.4954
 Red. masses --      1.1724                 1.0854                 3.8605
 Frc consts  --      1.4475                 1.6993                 6.7408
 IR Inten    --      4.4459                59.3720               132.2895

                     19                     20                     21
                      A                      A                      A
 Frequencies --   3181.9042              3206.5287              3309.8437
 Red. masses --      1.0820                 1.0701                 1.1182
 Frc consts  --      6.4541                 6.4827                 7.2172
 IR Inten    --     11.8516                 0.5570                 3.8729

                     22                     23                     24
                      A                      A                      A
 Frequencies --   3671.2812              3812.9605              3933.8639
 Red. masses --      1.0677                 1.0448                 1.0820
 Frc consts  --      8.4790                 8.9498                 9.8655
 IR Inten    --    801.2722                 9.0169               106.5759

 - Thermochemistry -
 -------------------
 Temperature   298.150 Kelvin.  Pressure   1.00000 Atm.
 Atom     1 has atomic number  6 and mass  12.00000

 Molecular mass:    62.03678 amu.
 Principal axes and moments of inertia in atomic units:
                           1         2         3
     Eigenvalues --    59.77226 752.77383 804.16530
           X            0.99997   0.00812   0.00001
           Y           -0.00812   0.99997  -0.00001
           Z           -0.00001   0.00001   1.00000
 This molecule is an asymmetric top.
 Rotational symmetry number  1.
 Rotational temperatures (Kelvin)      1.44907     0.11506     0.10771
 Rotational constants (GHZ):          30.19362     2.39745     2.24424
 Zero-point vibrational energy     211590.8 (Joules/Mol)
                                   50.57141 (Kcal/Mol)
 Warning -- explicit consideration of   7 degrees of freedom as
           vibrations may cause significant error
 Vibrational temperatures:     85.42    90.09   142.52   256.63   316.98
          (Kelvin)            333.60   702.93   977.42  1116.20  1190.36
                             1392.15  1407.22  1695.52  1918.51  1984.77
                             2082.76  2345.36  2476.85  4578.05  4613.48
                             4762.13  5282.15  5486.00  5659.95

 Zero-point correction=                           0.080591 (Hartree/Particle)
 Thermal correction to Energy=                    0.088061
 Thermal correction to Enthalpy=                  0.089005
 Thermal correction to Gibbs Free Energy=         0.049266
 Sum of electronic and zero-point Energies=           -229.795837
 Sum of electronic and thermal Energies=              -229.788367
 Sum of electronic and thermal Enthalpies=            -229.787423
 Sum of electronic and thermal Free Energies=         -229.827161

                     E (Thermal)             CV                S
                      KCal/Mol        Cal/Mol-Kelvin    Cal/Mol-Kelvin
 Total                   55.259             22.224             83.637
 Electronic               0.000              0.000              0.000
 Translational            0.889              2.981             38.295
 Rotational               0.889              2.981             25.096
 Vibrational             53.481             16.262             20.247
 Vibration     1          0.597              1.974              4.478
 Vibration     2          0.597              1.972              4.373
 Vibration     3          0.604              1.950              3.473
 Vibration     4          0.629              1.869              2.345
 Vibration     5          0.647              1.810              1.957
 Vibration     6          0.653              1.792              1.864
 Vibration     7          0.844              1.275              0.687

 ## DEPERTURBED TRANSITIONS MOMENTS ##

 Electric dipole : Fundamental Bands
 ------------------------------------------------------------------------

 ## AFTER VARIATIONAL CORRECTION

 Electric dipole : Fundamental Bands
 ------------------------------------------------------------------------

 Optimization completed.
    -- Stationary point found.
 Normal termination of Gaussian 16 at Sat Mar 22 16:19:19 2025.
