 Gaussian 16, Revision C.01,
 Gaussian 16:  EM64L-G16RevC.01  3-Jul-2019

 --------------------------------------------------------------------
 # MP2/aug-cc-pVTZ opt freq=(vibrot,anharmonic,selectAnharmonicModes)
 --------------------------------------------------------------------

 ----
 blah
 ----
 Symbolic Z-matrix:
 Charge =  0 Multiplicity = 1

 SCF Done:  E(RHF) =  -229.020662227     A.U. after   12 cycles
 E2 =    -0.8553079312D+00 EUMP2 =    -0.22987597015772D+03
 SCF Done:  E(RHF) =  -229.021627220     A.U. after   11 cycles
 E2 =    -0.8549260951D+00 EUMP2 =    -0.22987655331503D+03
 SCF Done:  E(RHF) =  -229.025522888     A.U. after   12 cycles
 E2 =    -0.8507443309D+00 EUMP2 =    -0.22987626721872D+03
 SCF Done:  E(RHF) =  -229.024696524     A.U. after   10 cycles
 E2 =    -0.8528797883D+00 EUMP2 =    -0.22987757631236D+03
 SCF Done:  E(RHF) =  -229.025066357     A.U. after    9 cycles
 E2 =    -0.8526128432D+00 EUMP2 =    -0.22987767920009D+03
 SCF Done:  E(RHF) =  -229.025248910     A.U. after   10 cycles
 E2 =    -0.8525000164D+00 EUMP2 =    -0.22987774892615D+03
 SCF Done:  E(RHF) =  -229.025252761     A.U. after    9 cycles
 E2 =    -0.8525237516D+00 EUMP2 =    -0.22987777651304D+03
 SCF Done:  E(RHF) =  -229.025247459     A.U. after    9 cycles
 E2 =    -0.8525559400D+00 EUMP2 =    -0.22987780339922D+03
 SCF Done:  E(RHF) =  -229.025277293     A.U. after    9 cycles
 E2 =    -0.8525463761D+00 EUMP2 =    -0.22987782366881D+03
 SCF Done:  E(RHF) =  -229.025280376     A.U. after    9 cycles
 E2 =    -0.8525532418D+00 EUMP2 =    -0.22987783361816D+03
 E2 =    -0.8525814223D+00 EUMP2 =    -0.22987784160916D+03
 E2 =    -0.8526485599D+00 EUMP2 =    -0.22987786589204D+03
 E2 =    -0.8528184004D+00 EUMP2 =    -0.22987790313111D+03
 E2 =    -0.8528207079D+00 EUMP2 =    -0.22987792366348D+03
 E2 =    -0.8528106447D+00 EUMP2 =    -0.22987793132521D+03
 E2 =    -0.8528251700D+00 EUMP2 =    -0.22987793199479D+03
 E2 =    -0.8528275016D+00 EUMP2 =    -0.22987793203641D+03
 E2 =    -0.8528283807D+00 EUMP2 =    -0.22987793205573D+03
 Optimization completed.
    -- Stationary point found.
 Normal termination of Gaussian 16 at Thu Apr  3 19:56:54 2025.

 ----------------------------------------------------------------------
 #N Geom=AllCheck Guess=TCheck SCRF=Check GenChk RMP2(FC)/Aug-CC-pVTZ F
 req
 ----------------------------------------------------------------------

 Structure from the checkpoint file:  "/scr/Gau-14654.chk"
 ----
 blah
 ----
 Charge =  0 Multiplicity = 1

                         Standard orientation:
 ---------------------------------------------------------------------
 Center     Atomic      Atomic             Coordinates (Angstroms)
 Number     Number       Type             X           Y           Z
 ---------------------------------------------------------------------
      1          6           0        1.355610   -0.287075    0.000359
      2          6           0        1.321201    1.049380   -0.000195
      3          1           0        2.288198   -0.835265    0.001611
      4          8           0        0.290535   -1.126986   -0.000477
      5          1           0        2.249627    1.597231    0.000606
      6          1           0        0.387703    1.593919   -0.001459
      7          1           0       -0.529411   -0.601461   -0.001650
      8          8           0       -2.164887    0.299713   -0.000071
      9          1           0       -2.727893    0.144179    0.764889
     10          1           0       -2.734275    0.145747   -0.760598
 ---------------------------------------------------------------------

 E2 =    -0.8528283658D+00 EUMP2 =    -0.22987793204082D+03
 E2 =    -0.8528283658D+00 EUMP2 =    -0.22987793204082D+03
 SCF Done:  E(RHF) =  -229.024894656     A.U. after    9 cycles
 E2 =    -0.8529683584D+00 EUMP2 =    -0.22987786301467D+03
 E2 =    -0.8529683584D+00 EUMP2 =    -0.22987786301467D+03
 SCF Done:  E(RHF) =  -229.025168892     A.U. after    9 cycles
 E2 =    -0.8526915876D+00 EUMP2 =    -0.22987786047984D+03
 E2 =    -0.8526915876D+00 EUMP2 =    -0.22987786047984D+03
 SCF Done:  E(RHF) =  -229.025002567     A.U. after    8 cycles
 E2 =    -0.8528562333D+00 EUMP2 =    -0.22987785880046D+03
 E2 =    -0.8528562333D+00 EUMP2 =    -0.22987785880046D+03
 SCF Done:  E(RHF) =  -229.025055458     A.U. after    8 cycles
 E2 =    -0.8528025098D+00 EUMP2 =    -0.22987785796816D+03
 E2 =    -0.8528025098D+00 EUMP2 =    -0.22987785796816D+03
 SCF Done:  E(RHF) =  -229.025551400     A.U. after    9 cycles
 E2 =    -0.8522893659D+00 EUMP2 =    -0.22987784076568D+03
 E2 =    -0.8522893659D+00 EUMP2 =    -0.22987784076568D+03
 SCF Done:  E(RHF) =  -229.024475802     A.U. after    9 cycles
 E2 =    -0.8533694943D+00 EUMP2 =    -0.22987784529648D+03
 E2 =    -0.8533694943D+00 EUMP2 =    -0.22987784529648D+03
 SCF Done:  E(RHF) =  -229.025555043     A.U. after    8 cycles
 E2 =    -0.8522772677D+00 EUMP2 =    -0.22987783231115D+03
 E2 =    -0.8522772677D+00 EUMP2 =    -0.22987783231115D+03
 SCF Done:  E(RHF) =  -229.024452903     A.U. after    8 cycles
 E2 =    -0.8533825995D+00 EUMP2 =    -0.22987783550220D+03
 E2 =    -0.8533825995D+00 EUMP2 =    -0.22987783550220D+03
 SCF Done:  E(RHF) =  -229.025000177     A.U. after    7 cycles
 E2 =    -0.8528273203D+00 EUMP2 =    -0.22987782749766D+03
 E2 =    -0.8528273203D+00 EUMP2 =    -0.22987782749766D+03
 SCF Done:  E(RHF) =  -229.024999406     A.U. after    7 cycles
 E2 =    -0.8528281558D+00 EUMP2 =    -0.22987782756173D+03
 E2 =    -0.8528281558D+00 EUMP2 =    -0.22987782756173D+03

 Alpha  occ. eigenvalues --  -20.60164 -20.56238 -11.28158 -11.19548  -1.39010
 Alpha  occ. eigenvalues --   -1.37604  -1.00209  -0.81184  -0.75039  -0.66574
 Alpha  occ. eigenvalues --   -0.64989  -0.62273  -0.55435  -0.55007  -0.52654
 Alpha  occ. eigenvalues --   -0.51255  -0.32901
 Alpha virt. eigenvalues --    0.02041   0.04147   0.04332   0.04570   0.06257
 Alpha virt. eigenvalues --    0.06441   0.10807   0.10870   0.11463   0.12203
 Alpha virt. eigenvalues --    0.13159   0.14595   0.15454   0.16603   0.16676

 Mulliken charges:
               1
     1  C   -0.371057
     2  C   -1.028170
     3  H    0.684080
     4  O   -0.504536
     5  H    0.304211
     6  H    0.586632
     7  H    0.290774
     8  O   -0.378100
     9  H    0.200796
    10  H    0.215369
 Sum of Mulliken charges =  -0.00000

 Dipole moment (field-independent basis, Debye):
    X=             -3.2348    Y=              0.5161    Z=             -0.0101  Tot=              3.2757
 Quadrupole moment (field-independent basis, Debye-Ang):
   XX=            -13.3177   YY=            -29.1380   ZZ=            -25.7872
   XY=              0.3012   XZ=              0.0566   YZ=             -0.0030

  Exact polarizability:      44.967       2.338      48.345       0.078       0.011      34.485
 Approx polarizability:      33.055       0.515      39.624       0.062       0.010      31.063

                      1                      2                      3
                      A                      A                      A
 Frequencies --     52.1002                75.3776               116.2162
 Red. masses --      1.1148                 3.5116                 1.3700
 Frc consts  --      0.0018                 0.0118                 0.0109
 IR Inten    --     42.9510                11.1545                 0.8083

                      4                      5                      6
                      A                      A                      A
 Frequencies --    174.9585               229.0562               249.5476
 Red. masses --      3.3342                 1.4497                 1.2237
 Frc consts  --      0.0601                 0.0448                 0.0449
 IR Inten    --     14.6808               190.0100                 3.1155

                      7                      8                      9
                      A                      A                      A
 Frequencies --    505.2855               716.3218               782.2990
 Red. masses --      2.1674                 1.3181                 1.1473
 Frc consts  --      0.3260                 0.3985                 0.4137
 IR Inten    --      5.6715                20.4613                52.0697

                     10                     11                     12
                      A                      A                      A
 Frequencies --    821.8499               966.6219              1009.4830
 Red. masses --      1.4015                 1.7617                 1.1233
 Frc consts  --      0.5577                 0.9699                 0.6744
 IR Inten    --     50.7008                15.1148                45.7106

                     13                     14                     15
                      A                      A                      A
 Frequencies --   1164.2744              1342.3564              1395.9359
 Red. masses --      2.3148                 1.2164                 1.4176
 Frc consts  --      1.8487                 1.2914                 1.6275
 IR Inten    --    170.5934                10.9232                 3.2410

                     16                     17                     18
                      A                      A                      A
 Frequencies --   1456.6983              1628.7365              1690.4561
 Red. masses --      1.1481                 1.0838                 4.1321
 Frc consts  --      1.4353                 1.6940                 6.9571
 IR Inten    --     20.6457                68.7477               177.7542

                     19                     20                     21
                      A                      A                      A
 Frequencies --   3194.4961              3225.1293              3301.5301
 Red. masses --      1.0577                 1.0956                 1.1172
 Frc consts  --      6.3595                 6.7142                 7.1749
 IR Inten    --      1.6480                15.1505                 5.2673

                     22                     23                     24
                      A                      A                      A
 Frequencies --   3628.8689              3810.6957              3932.6268
 Red. masses --      1.0666                 1.0447                 1.0819
 Frc consts  --      8.2753                 8.9385                 9.8588
 IR Inten    --    520.6895                11.8004               103.5524

 - Thermochemistry -
 -------------------
 Temperature   298.150 Kelvin.  Pressure   1.00000 Atm.
 Atom     1 has atomic number  6 and mass  12.00000

 Molecular mass:    62.03678 amu.
 Principal axes and moments of inertia in atomic units:
                           1         2         3
     Eigenvalues --   154.53064 522.60207 668.75727
           X            0.99985   0.01720  -0.00001
           Y           -0.01720   0.99985  -0.00005
           Z            0.00001   0.00005   1.00000
 This molecule is an asymmetric top.
 Rotational symmetry number  1.
 Rotational temperatures (Kelvin)      0.56050     0.16574     0.12951
 Rotational constants (GHZ):          11.67886     3.45338     2.69865
 Zero-point vibrational energy     212163.2 (Joules/Mol)
                                   50.70823 (Kcal/Mol)
 Warning -- explicit consideration of   7 degrees of freedom as
           vibrations may cause significant error
 Vibrational temperatures:     74.96   108.45   167.21   251.73   329.56
          (Kelvin)            359.04   726.99  1030.63  1125.55  1182.46
                             1390.75  1452.42  1675.13  1931.35  2008.44
                             2095.86  2343.39  2432.19  4596.17  4640.24
                             4750.17  5221.13  5482.74  5658.17

 Zero-point correction=                           0.080809 (Hartree/Particle)
 Thermal correction to Energy=                    0.088171
 Thermal correction to Enthalpy=                  0.089115
 Thermal correction to Gibbs Free Energy=         0.049511
 Sum of electronic and zero-point Energies=           -229.797123
 Sum of electronic and thermal Energies=              -229.789762
 Sum of electronic and thermal Enthalpies=            -229.788817
 Sum of electronic and thermal Free Energies=         -229.828421

                     E (Thermal)             CV                S
                      KCal/Mol        Cal/Mol-Kelvin    Cal/Mol-Kelvin
 Total                   55.328             22.026             83.353
 Electronic               0.000              0.000              0.000
 Translational            0.889              2.981             38.295
 Rotational               0.889              2.981             25.494
 Vibrational             53.550             16.064             19.565
 Vibration     1          0.596              1.977              4.736
 Vibration     2          0.599              1.965              4.008
 Vibration     3          0.608              1.936              3.162
 Vibration     4          0.627              1.873              2.382
 Vibration     5          0.652              1.797              1.886
 Vibration     6          0.662              1.764              1.734
 Vibration     7          0.861              1.238              0.645

 ## DEPERTURBED TRANSITIONS MOMENTS ##

 Electric dipole : Fundamental Bands
 ------------------------------------------------------------------------

 ## AFTER VARIATIONAL CORRECTION

 Electric dipole : Fundamental Bands
 ------------------------------------------------------------------------

                           ! Non-Optimized Parameters !
 Normal termination of Gaussian 16 at Fri Apr  4 08:18:05 2025.
