 Gaussian 16, Revision C.01,
 Gaussian 16:  EM64L-G16RevC.01  3-Jul-2019

 ----------------------------------------------
 # MP2/aug-cc-pVDZ opt freq=(vibrot,anharmonic)
 ----------------------------------------------

 ----
 blah
 ----
 Symbolic Z-matrix:
 Charge =  0 Multiplicity = 1

 SCF Done:  E(RHF) =  -209.130454664     A.U. after   12 cycles
 E2 =    -0.6885213003D+00 EUMP2 =    -0.20981897596422D+03
 SCF Done:  E(RHF) =  -209.129410865     A.U. after   12 cycles
 E2 =    -0.6902656419D+00 EUMP2 =    -0.20981967650701D+03
 SCF Done:  E(RHF) =  -209.127072303     A.U. after   13 cycles
 E2 =    -0.6918361671D+00 EUMP2 =    -0.20981890847007D+03
 SCF Done:  E(RHF) =  -209.131005683     A.U. after   11 cycles
 E2 =    -0.6896228665D+00 EUMP2 =    -0.20982062854956D+03
 SCF Done:  E(RHF) =  -209.131482314     A.U. after   10 cycles
 E2 =    -0.6892376931D+00 EUMP2 =    -0.20982072000737D+03
 SCF Done:  E(RHF) =  -209.131745527     A.U. after   11 cycles
 E2 =    -0.6888692649D+00 EUMP2 =    -0.20982061479178D+03
 SCF Done:  E(RHF) =  -209.132799859     A.U. after   11 cycles
 E2 =    -0.6876960175D+00 EUMP2 =    -0.20982049587615D+03
 SCF Done:  E(RHF) =  -209.131973409     A.U. after   10 cycles
 E2 =    -0.6888179852D+00 EUMP2 =    -0.20982079139442D+03
 SCF Done:  E(RHF) =  -209.131984320     A.U. after    9 cycles
 E2 =    -0.6888293433D+00 EUMP2 =    -0.20982081366377D+03
 SCF Done:  E(RHF) =  -209.131901676     A.U. after   10 cycles
 E2 =    -0.6889335934D+00 EUMP2 =    -0.20982083526962D+03
 E2 =    -0.6890106914D+00 EUMP2 =    -0.20982084664277D+03
 E2 =    -0.6890981299D+00 EUMP2 =    -0.20982085439988D+03
 E2 =    -0.6891353615D+00 EUMP2 =    -0.20982085618185D+03
 E2 =    -0.6891522773D+00 EUMP2 =    -0.20982085645078D+03
 Optimization completed.
    -- Stationary point found.
 Normal termination of Gaussian 16 at Fri Mar 21 11:33:20 2025.

 ----------------------------------------------------------------------
 #N Geom=AllCheck Guess=TCheck SCRF=Check GenChk RMP2(FC)/Aug-CC-pVDZ F
 req
 ----------------------------------------------------------------------

 Structure from the checkpoint file:  "/scr/Gau-8466.chk"
 ----
 blah
 ----
 Charge =  0 Multiplicity = 1

                         Standard orientation:
 ---------------------------------------------------------------------
 Center     Atomic      Atomic             Coordinates (Angstroms)
 Number     Number       Type             X           Y           Z
 ---------------------------------------------------------------------
      1          6           0       -1.360688   -0.295554    0.000056
      2          6           0       -1.331840    1.058785   -0.000058
      3          1           0       -2.309133   -0.841196    0.000440
      4          8           0       -0.296027   -1.143691   -0.000093
      5          1           0       -2.273656    1.607571    0.000246
      6          1           0       -0.395563    1.620850   -0.000383
      7          1           0        0.544124   -0.620993   -0.000186
      8          7           0        2.191494    0.228746    0.000042
      9          1           0        2.329724    0.822159   -0.818489
     10          1           0        2.328507    0.823930    0.817492
     11          1           0        2.958928   -0.443396    0.001341
 ---------------------------------------------------------------------

 E2 =    -0.6891522751D+00 EUMP2 =    -0.20982085644860D+03
 E2 =    -0.6891522751D+00 EUMP2 =    -0.20982085644860D+03
 E2 =    -0.6891534716D+00 EUMP2 =    -0.20982085643432D+03
 E2 =    -0.6891534716D+00 EUMP2 =    -0.20982085643432D+03
 E2 =    -0.6891534427D+00 EUMP2 =    -0.20982085641366D+03
 E2 =    -0.6891534427D+00 EUMP2 =    -0.20982085641366D+03
 SCF Done:  E(RHF) =  -209.131591958     A.U. after    8 cycles
 E2 =    -0.6891908577D+00 EUMP2 =    -0.20982078281553D+03
 E2 =    -0.6891908577D+00 EUMP2 =    -0.20982078281553D+03
 SCF Done:  E(RHF) =  -209.131669178     A.U. after    8 cycles
 E2 =    -0.6891129471D+00 EUMP2 =    -0.20982078212534D+03
 E2 =    -0.6891129471D+00 EUMP2 =    -0.20982078212534D+03
 SCF Done:  E(RHF) =  -209.132190975     A.U. after   10 cycles
 E2 =    -0.6885864042D+00 EUMP2 =    -0.20982077737905D+03
 E2 =    -0.6885864042D+00 EUMP2 =    -0.20982077737905D+03
 SCF Done:  E(RHF) =  -209.131062132     A.U. after   10 cycles
 E2 =    -0.6897196764D+00 EUMP2 =    -0.20982078180846D+03
 E2 =    -0.6897196764D+00 EUMP2 =    -0.20982078180846D+03
 SCF Done:  E(RHF) =  -209.132033856     A.U. after    8 cycles
 E2 =    -0.6887402503D+00 EUMP2 =    -0.20982077410625D+03
 E2 =    -0.6887402503D+00 EUMP2 =    -0.20982077410625D+03
 SCF Done:  E(RHF) =  -209.131208900     A.U. after    8 cycles
 E2 =    -0.6895667117D+00 EUMP2 =    -0.20982077561144D+03
 E2 =    -0.6895667117D+00 EUMP2 =    -0.20982077561144D+03
 SCF Done:  E(RHF) =  -209.131615724     A.U. after    8 cycles
 E2 =    -0.6891518398D+00 EUMP2 =    -0.20982076756411D+03
 E2 =    -0.6891518398D+00 EUMP2 =    -0.20982076756411D+03
 SCF Done:  E(RHF) =  -209.131615968     A.U. after    8 cycles
 E2 =    -0.6891516559D+00 EUMP2 =    -0.20982076762393D+03
 E2 =    -0.6891516559D+00 EUMP2 =    -0.20982076762393D+03
 SCF Done:  E(RHF) =  -209.131620481     A.U. after    8 cycles
 E2 =    -0.6891462607D+00 EUMP2 =    -0.20982076674160D+03
 E2 =    -0.6891462607D+00 EUMP2 =    -0.20982076674160D+03
 SCF Done:  E(RHF) =  -209.131611158     A.U. after    8 cycles
 E2 =    -0.6891572661D+00 EUMP2 =    -0.20982076842372D+03
 E2 =    -0.6891572661D+00 EUMP2 =    -0.20982076842372D+03

 Alpha  occ. eigenvalues --  -20.56359 -15.58751 -11.29367 -11.20823  -1.36992
 Alpha  occ. eigenvalues --   -1.17754  -0.99659  -0.80482  -0.66135  -0.66024
 Alpha  occ. eigenvalues --   -0.65536  -0.64095  -0.54407  -0.52872  -0.52259
 Alpha  occ. eigenvalues --   -0.45878  -0.32377
 Alpha virt. eigenvalues --    0.02722   0.04791   0.05191   0.05467   0.06506
 Alpha virt. eigenvalues --    0.07731   0.09228   0.12475   0.13549   0.13829
 Alpha virt. eigenvalues --    0.15787   0.16366   0.16953   0.18434   0.18638

 Mulliken charges:
               1
     1  C    0.763841
     2  C    0.550770
     3  H   -0.295757
     4  O   -0.534620
     5  H   -0.322311
     6  H   -0.357186
     7  H    0.262687
     8  N   -0.177087
     9  H    0.045397
    10  H    0.045663
    11  H    0.018604
 Sum of Mulliken charges =  -0.00000

 Dipole moment (field-independent basis, Debye):
    X=              3.1598    Y=              1.5542    Z=              0.0006  Tot=              3.5214
 Quadrupole moment (field-independent basis, Debye-Ang):
   XX=            -17.3427   YY=            -28.4390   ZZ=            -28.1996
   XY=              1.5127   XZ=             -0.0010   YZ=             -0.0003

  Exact polarizability:      52.337      -1.437      53.439       0.000       0.000      37.867
 Approx polarizability:      37.108      -0.295      45.101       0.000       0.000      34.260

                      1                      2                      3
                      A                      A                      A
 Frequencies --     58.2098                82.1254                93.4288
 Red. masses --      1.0643                 2.6285                 1.4852
 Frc consts  --      0.0021                 0.0104                 0.0076
 IR Inten    --      0.1763                 4.6010                 8.4802

                      4                      5                      6
                      A                      A                      A
 Frequencies --    209.0890               275.9345               297.8398
 Red. masses --      4.3672                 1.2307                 1.2613
 Frc consts  --      0.1125                 0.0552                 0.0659
 IR Inten    --     10.2598                 9.1743                20.2787

                      7                      8                      9
                      A                      A                      A
 Frequencies --    516.8160               712.5357               798.6945
 Red. masses --      2.2073                 1.4150                 1.4152
 Frc consts  --      0.3474                 0.4233                 0.5319
 IR Inten    --      5.8393                 8.6468                61.1504

                     10                     11                     12
                      A                      A                      A
 Frequencies --    890.0071               958.5339              1015.8595
 Red. masses --      1.1046                 1.8261                 1.1042
 Frc consts  --      0.5155                 0.9885                 0.6714
 IR Inten    --     23.1868                18.4821                69.3453

                     13                     14                     15
                      A                      A                      A
 Frequencies --   1128.2426              1175.1840              1334.1227
 Red. masses --      1.1875                 2.6265                 1.1831
 Frc consts  --      0.8906                 2.1371                 1.2407
 IR Inten    --    157.1306               140.1237                17.2256

                     16                     17                     18
                      A                      A                      A
 Frequencies --   1415.9877              1485.3071              1646.8083
 Red. masses --      1.3138                 1.1587                 1.0703
 Frc consts  --      1.5520                 1.5061                 1.7102
 IR Inten    --      6.7053                23.2253                24.4953

                     19                     20                     21
                      A                      A                      A
 Frequencies --   1649.7862              1680.7213              3198.2801
 Red. masses --      1.0619                 3.8165                 1.0577
 Frc consts  --      1.7028                 6.3519                 6.3743
 IR Inten    --     19.5765               188.2217                 8.6288

                     22                     23                     24
                      A                      A                      A
 Frequencies --   3222.8343              3308.5880              3371.8311
 Red. masses --      1.0949                 1.1169                 1.0695
 Frc consts  --      6.7005                 7.2033                 7.1643
 IR Inten    --     47.9728                13.6157               929.8829

                     25                     26                     27
                      A                      A                      A
 Frequencies --   3474.6804              3625.8595              3626.1771
 Red. masses --      1.0282                 1.0891                 1.0888
 Frc consts  --      7.3139                 8.4358                 8.4349
 IR Inten    --      6.9596                14.1594                13.9674

 - Thermochemistry -
 -------------------
 Temperature   298.150 Kelvin.  Pressure   1.00000 Atm.
 Atom     1 has atomic number  6 and mass  12.00000

 Molecular mass:    61.05276 amu.
 Principal axes and moments of inertia in atomic units:
                           1         2         3
     Eigenvalues --   161.69711 514.73682 666.80140
           X            1.00000  -0.00017  -0.00001
           Y            0.00017   1.00000  -0.00001
           Z            0.00001   0.00001   1.00000
 This molecule is an asymmetric top.
 Rotational symmetry number  1.
 Rotational temperatures (Kelvin)      0.53566     0.16827     0.12989
 Rotational constants (GHZ):          11.16125     3.50614     2.70656
 Zero-point vibrational energy     246750.6 (Joules/Mol)
                                   58.97482 (Kcal/Mol)
 Warning -- explicit consideration of   7 degrees of freedom as
           vibrations may cause significant error
 Vibrational temperatures:     83.75   118.16   134.42   300.83   397.01
          (Kelvin)            428.52   743.58  1025.18  1149.14  1280.52
                             1379.12  1461.60  1623.29  1690.83  1919.50
                             2037.29  2137.03  2369.39  2373.67  2418.18
                             4601.61  4636.94  4760.32  4851.31  4999.29
                             5216.80  5217.26

 Zero-point correction=                           0.093982 (Hartree/Particle)
 Thermal correction to Energy=                    0.101173
 Thermal correction to Enthalpy=                  0.102117
 Thermal correction to Gibbs Free Energy=         0.062974
 Sum of electronic and zero-point Energies=           -209.726874
 Sum of electronic and thermal Energies=              -209.719684
 Sum of electronic and thermal Enthalpies=            -209.718740
 Sum of electronic and thermal Free Energies=         -209.757883

                     E (Thermal)             CV                S
                      KCal/Mol        Cal/Mol-Kelvin    Cal/Mol-Kelvin
 Total                   63.487             21.961             82.384
 Electronic               0.000              0.000              0.000
 Translational            0.889              2.981             38.247
 Rotational               0.889              2.981             25.521
 Vibrational             61.709             15.999             18.616
 Vibration     1          0.596              1.974              4.517
 Vibration     2          0.600              1.961              3.839
 Vibration     3          0.602              1.954              3.587
 Vibration     4          0.642              1.827              2.052
 Vibration     5          0.678              1.718              1.559
 Vibration     6          0.691              1.678              1.429
 Vibration     7          0.872              1.213              0.617

 ## DEPERTURBED TRANSITIONS MOMENTS ##

 Electric dipole : Fundamental Bands
 ------------------------------------------------------------------------

 ## AFTER VARIATIONAL CORRECTION

 Electric dipole : Fundamental Bands
 ------------------------------------------------------------------------

                           ! Non-Optimized Parameters !
 Normal termination of Gaussian 16 at Fri Mar 21 13:02:18 2025.
