 Gaussian 16, Revision C.01,
 Gaussian 16:  EM64L-G16RevC.01  3-Jul-2019

 --------------------------------------------------------------------
 # MP2/aug-cc-pVTZ opt freq=(vibrot,anharmonic,SelectAnharmonicModes)
 --------------------------------------------------------------------

 ----
 blah
 ----
 Symbolic Z-matrix:
 Charge =  0 Multiplicity = 1

 SCF Done:  E(RHF) =  -209.186480580     A.U. after   12 cycles
 E2 =    -0.8267500951D+00 EUMP2 =    -0.21001323067550D+03
 SCF Done:  E(RHF) =  -209.186480282     A.U. after    7 cycles
 E2 =    -0.8267503843D+00 EUMP2 =    -0.21001323066586D+03
 SCF Done:  E(RHF) =  -209.186481887     A.U. after    7 cycles
 E2 =    -0.8267488156D+00 EUMP2 =    -0.21001323070213D+03
 SCF Done:  E(RHF) =  -209.186478949     A.U. after    7 cycles
 E2 =    -0.8267517703D+00 EUMP2 =    -0.21001323071894D+03
 SCF Done:  E(RHF) =  -209.186482379     A.U. after    6 cycles
 E2 =    -0.8267483589D+00 EUMP2 =    -0.21001323073820D+03
 Optimization completed.
    -- Stationary point found.
 Normal termination of Gaussian 16 at Thu Apr  3 19:55:31 2025.

 ----------------------------------------------------------------------
 #N Geom=AllCheck Guess=TCheck SCRF=Check GenChk RMP2(FC)/Aug-CC-pVTZ F
 req
 ----------------------------------------------------------------------

 Structure from the checkpoint file:  "/scr/Gau-43753.chk"
 ----
 blah
 ----
 Charge =  0 Multiplicity = 1

                         Standard orientation:
 ---------------------------------------------------------------------
 Center     Atomic      Atomic             Coordinates (Angstroms)
 Number     Number       Type             X           Y           Z
 ---------------------------------------------------------------------
      1          6           0        1.353249   -0.290841   -0.000134
      2          6           0        1.324973    1.048369    0.000230
      3          1           0        2.292486   -0.829432   -0.000449
      4          8           0        0.298661   -1.133293   -0.000035
      5          1           0        2.255942    1.591954    0.000181
      6          1           0        0.398093    1.603003    0.000647
      7          1           0       -0.541306   -0.617435    0.000071
      8          7           0       -2.185392    0.226553   -0.000034
      9          1           0       -2.311145    0.814763    0.815069
     10          1           0       -2.309878    0.815990   -0.814447
     11          1           0       -2.945062   -0.443540   -0.001129
 ---------------------------------------------------------------------

 SCF Done:  E(RHF) =  -209.186482379     A.U. after    1 cycles
 E2 =    -0.8267483408D+00 EUMP2 =    -0.21001323072010D+03
 E2 =    -0.8267483408D+00 EUMP2 =    -0.21001323072010D+03
 SCF Done:  E(RHF) =  -209.186473289     A.U. after    7 cycles
 E2 =    -0.8267503732D+00 EUMP2 =    -0.21001322366260D+03
 E2 =    -0.8267503732D+00 EUMP2 =    -0.21001322366260D+03
 SCF Done:  E(RHF) =  -209.186473213     A.U. after    7 cycles
 E2 =    -0.8267504195D+00 EUMP2 =    -0.21001322363254D+03
 E2 =    -0.8267504195D+00 EUMP2 =    -0.21001322363254D+03
 SCF Done:  E(RHF) =  -209.186426837     A.U. after    7 cycles
 E2 =    -0.8267956170D+00 EUMP2 =    -0.21001322245439D+03
 E2 =    -0.8267956170D+00 EUMP2 =    -0.21001322245439D+03
 SCF Done:  E(RHF) =  -209.186515575     A.U. after    7 cycles
 E2 =    -0.8267067251D+00 EUMP2 =    -0.21001322230008D+03
 E2 =    -0.8267067251D+00 EUMP2 =    -0.21001322230007D+03
 E2 =    -0.8268930024D+00 EUMP2 =    -0.21001322117256D+03
 E2 =    -0.8268930024D+00 EUMP2 =    -0.21001322117256D+03
 E2 =    -0.8266064824D+00 EUMP2 =    -0.21001322115335D+03
 E2 =    -0.8266064824D+00 EUMP2 =    -0.21001322115335D+03
 E2 =    -0.8267174213D+00 EUMP2 =    -0.21001321859843D+03
 SCF Done:  E(RHF) =  -209.186430353     A.U. after    8 cycles
 E2 =    -0.8267263440D+00 EUMP2 =    -0.21001315669673D+03
 E2 =    -0.8267263440D+00 EUMP2 =    -0.21001315669673D+03
 SCF Done:  E(RHF) =  -209.186385264     A.U. after    8 cycles
 E2 =    -0.8267722543D+00 EUMP2 =    -0.21001315751853D+03
 E2 =    -0.8267722543D+00 EUMP2 =    -0.21001315751853D+03
 SCF Done:  E(RHF) =  -209.185860584     A.U. after    9 cycles
 E2 =    -0.8272947978D+00 EUMP2 =    -0.21001315538166D+03
 E2 =    -0.8272947978D+00 EUMP2 =    -0.21001315538166D+03
 SCF Done:  E(RHF) =  -209.186948181     A.U. after    9 cycles
 E2 =    -0.8262033682D+00 EUMP2 =    -0.21001315154914D+03
 E2 =    -0.8262033682D+00 EUMP2 =    -0.21001315154914D+03
 SCF Done:  E(RHF) =  -209.186727794     A.U. after    8 cycles
 E2 =    -0.8264192427D+00 EUMP2 =    -0.21001314703677D+03
 E2 =    -0.8264192427D+00 EUMP2 =    -0.21001314703677D+03
 SCF Done:  E(RHF) =  -209.186067990     A.U. after    8 cycles
 E2 =    -0.8270812699D+00 EUMP2 =    -0.21001314926028D+03
 E2 =    -0.8270812699D+00 EUMP2 =    -0.21001314926027D+03
 SCF Done:  E(RHF) =  -209.186393815     A.U. after    7 cycles
 E2 =    -0.8267479203D+00 EUMP2 =    -0.21001314173516D+03
 E2 =    -0.8267479203D+00 EUMP2 =    -0.21001314173516D+03
 SCF Done:  E(RHF) =  -209.186391465     A.U. after    7 cycles
 E2 =    -0.8267492413D+00 EUMP2 =    -0.21001314070585D+03
 E2 =    -0.8267492413D+00 EUMP2 =    -0.21001314070585D+03
 SCF Done:  E(RHF) =  -209.186390629     A.U. after    7 cycles
 E2 =    -0.8267512428D+00 EUMP2 =    -0.21001314187198D+03
 E2 =    -0.8267512428D+00 EUMP2 =    -0.21001314187198D+03
 SCF Done:  E(RHF) =  -209.186394623     A.U. after    7 cycles
 E2 =    -0.8267459489D+00 EUMP2 =    -0.21001314057177D+03
 E2 =    -0.8267459489D+00 EUMP2 =    -0.21001314057177D+03

 Alpha  occ. eigenvalues --  -20.55319 -15.57521 -11.28078 -11.19429  -1.37116
 Alpha  occ. eigenvalues --   -1.17892  -0.99935  -0.80708  -0.66691  -0.66198
 Alpha  occ. eigenvalues --   -0.65850  -0.64562  -0.54781  -0.52966  -0.52441
 Alpha  occ. eigenvalues --   -0.45826  -0.32555
 Alpha virt. eigenvalues --    0.02199   0.03967   0.04319   0.04453   0.05463
 Alpha virt. eigenvalues --    0.06314   0.07882   0.10786   0.11045   0.11458
 Alpha virt. eigenvalues --    0.12544   0.13266   0.14411   0.15076   0.15310

 Mulliken charges:
               1
     1  C   -0.356334
     2  C   -1.072423
     3  H    0.683625
     4  O   -0.536418
     5  H    0.311778
     6  H    0.556442
     7  H    0.315142
     8  N   -0.277953
     9  H    0.146711
    10  H    0.144469
    11  H    0.084959
 Sum of Mulliken charges =  -0.00000

 Dipole moment (field-independent basis, Debye):
    X=             -3.1371    Y=              1.5485    Z=              0.0012  Tot=              3.4985
 Quadrupole moment (field-independent basis, Debye-Ang):
   XX=            -17.2232   YY=            -28.0020   ZZ=            -27.7029
   XY=             -1.4865   XZ=             -0.0046   YZ=              0.0051

  Exact polarizability:      51.790       1.364      52.522      -0.006       0.019      37.591
 Approx polarizability:      36.703       0.242      44.122      -0.004       0.018      34.047

                      1                      2                      3
                      A                      A                      A
 Frequencies --     57.1012                78.5246                86.4822
 Red. masses --      1.0911                 2.6065                 1.4185
 Frc consts  --      0.0021                 0.0095                 0.0063
 IR Inten    --      0.8785                 4.6432                 7.5895

                      4                      5                      6
                      A                      A                      A
 Frequencies --    208.4233               270.3470               294.8400
 Red. masses --      4.3424                 1.2323                 1.2622
 Frc consts  --      0.1111                 0.0531                 0.0646
 IR Inten    --     10.0979                 8.6468                19.5122

                      7                      8                      9
                      A                      A                      A
 Frequencies --    519.6329               715.4609               799.0867
 Red. masses --      2.1852                 1.4028                 1.4048
 Frc consts  --      0.3476                 0.4231                 0.5285
 IR Inten    --      6.0306                 9.7346                57.3602

                     10                     11                     12
                      A                      A                      A
 Frequencies --    893.4141               969.2885              1023.5229
 Red. masses --      1.1137                 1.8026                 1.1150
 Frc consts  --      0.5238                 0.9979                 0.6882
 IR Inten    --     33.2328                16.1513                58.5471

                     13                     14                     15
                      A                      A                      A
 Frequencies --   1111.7823              1189.8589              1343.2778
 Red. masses --      1.1900                 2.5878                 1.1872
 Frc consts  --      0.8667                 2.1586                 1.2622
 IR Inten    --    165.5529               144.5299                19.1054

                     16                     17                     18
                      A                      A                      A
 Frequencies --   1426.4331              1483.8588              1667.0392
 Red. masses --      1.3441                 1.1524                 1.0736
 Frc consts  --      1.6114                 1.4951                 1.7579
 IR Inten    --      6.5296                23.0969                28.0831

                     19                     20                     21
                      A                      A                      A
 Frequencies --   1667.8683              1686.9053              3196.5222
 Red. masses --      1.0634                 3.8378                 1.0578
 Frc consts  --      1.7428                 6.4345                 6.3683
 IR Inten    --     20.6385               189.3603                14.5514

                     22                     23                     24
                      A                      A                      A
 Frequencies --   3213.3245              3300.6103              3380.8286
 Red. masses --      1.0942                 1.1169                 1.0694
 Frc consts  --      6.6567                 7.1690                 7.2019
 IR Inten    --     35.9727                10.3180               952.4732

                     25                     26                     27
                      A                      A                      A
 Frequencies --   3495.7310              3639.3538              3639.3660
 Red. masses --      1.0271                 1.0896                 1.0894
 Frc consts  --      7.3950                 8.5025                 8.5014
 IR Inten    --      6.3280                19.0768                18.9631

 - Thermochemistry -
 -------------------
 Temperature   298.150 Kelvin.  Pressure   1.00000 Atm.
 Atom     1 has atomic number  6 and mass  12.00000

 Molecular mass:    61.05276 amu.
 Principal axes and moments of inertia in atomic units:
                           1         2         3
     Eigenvalues --   158.64572 510.32972 659.41890
           X            1.00000   0.00051  -0.00002
           Y           -0.00051   1.00000  -0.00013
           Z            0.00002   0.00013   1.00000
 This molecule is an asymmetric top.
 Rotational symmetry number  1.
 Rotational temperatures (Kelvin)      0.54596     0.16972     0.13135
 Rotational constants (GHZ):          11.37592     3.53642     2.73687
 Zero-point vibrational energy     247381.1 (Joules/Mol)
                                   59.12549 (Kcal/Mol)
 Warning -- explicit consideration of   7 degrees of freedom as
           vibrations may cause significant error
 Vibrational temperatures:     82.16   112.98   124.43   299.87   388.97
          (Kelvin)            424.21   747.64  1029.39  1149.71  1285.42
                             1394.59  1472.62  1599.61  1711.94  1932.68
                             2052.32  2134.94  2398.50  2399.69  2427.08
                             4599.08  4623.26  4748.84  4864.26  5029.58
                             5236.22  5236.24

 Zero-point correction=                           0.094222 (Hartree/Particle)
 Thermal correction to Energy=                    0.101441
 Thermal correction to Enthalpy=                  0.102385
 Thermal correction to Gibbs Free Energy=         0.063111
 Sum of electronic and zero-point Energies=           -209.919008
 Sum of electronic and thermal Energies=              -209.911790
 Sum of electronic and thermal Enthalpies=            -209.910846
 Sum of electronic and thermal Free Energies=         -209.950120

                     E (Thermal)             CV                S
                      KCal/Mol        Cal/Mol-Kelvin    Cal/Mol-Kelvin
 Total                   63.655             21.936             82.659
 Electronic               0.000              0.000              0.000
 Translational            0.889              2.981             38.247
 Rotational               0.889              2.981             25.482
 Vibrational             61.878             15.975             18.930
 Vibration     1          0.596              1.975              4.555
 Vibration     2          0.600              1.964              3.927
 Vibration     3          0.601              1.959              3.738
 Vibration     4          0.642              1.828              2.057
 Vibration     5          0.674              1.728              1.594
 Vibration     6          0.689              1.683              1.446
 Vibration     7          0.875              1.207              0.611

 ## DEPERTURBED TRANSITIONS MOMENTS ##

 Electric dipole : Fundamental Bands
 ------------------------------------------------------------------------

 ## AFTER VARIATIONAL CORRECTION

 Electric dipole : Fundamental Bands
 ------------------------------------------------------------------------

 Optimization completed.
    -- Stationary point found.
 Normal termination of Gaussian 16 at Fri Apr  4 17:37:39 2025.
